<?xml version="1.0" encoding="ISO-8859-1"?>
<modeling>
 <generator>
  <i name="program" type="string">vasp </i>
  <i name="version" type="string">5.3.3  </i>
  <i name="subversion" type="string">18Dez12 (build May 15 2014 14:41:16) complex                          parallel </i>
  <i name="platform" type="string">LinuxIFC </i>
  <i name="date" type="string">2016 04 22 </i>
  <i name="time" type="string">02:28:26 </i>
 </generator>
 <incar>
  <i type="string" name="PREC">accurate</i>
  <i type="string" name="ALGO"> Fast</i>
  <i type="int" name="ISPIN">     2</i>
  <i type="int" name="ICHARG">    11</i>
  <i type="int" name="NELM">   100</i>
  <i type="int" name="IBRION">    -1</i>
  <i name="EDIFF">      0.00010000</i>
  <i type="int" name="NSW">     0</i>
  <i type="int" name="ISIF">     3</i>
  <i type="int" name="ISYM">     0</i>
  <i name="ENCUT">    520.00000000</i>
  <i type="string" name="LREAL"> Auto</i>
  <i type="int" name="ISMEAR">     0</i>
  <i name="SIGMA">      0.00100000</i>
  <i type="logical" name="LWAVE"> F  </i>
  <i type="logical" name="LCHARG"> F  </i>
  <i type="logical" name="LORBIT"> F  </i>
  <i type="int" name="NELM">   100</i>
 </incar>
 <kpoints>
  <varray name="kpointlist" >
   <v>       0.00000000       0.00000000       0.00000000 </v>
   <v>      -0.00100000      -0.00100000      -0.00100000 </v>
   <v>      -0.00100000      -0.00100000       0.00000000 </v>
   <v>      -0.00100000      -0.00100000       0.00100000 </v>
   <v>      -0.00100000       0.00000000      -0.00100000 </v>
   <v>      -0.00100000       0.00000000       0.00000000 </v>
   <v>      -0.00100000       0.00000000       0.00100000 </v>
   <v>      -0.00100000       0.00100000      -0.00100000 </v>
   <v>      -0.00100000       0.00100000       0.00000000 </v>
   <v>      -0.00100000       0.00100000       0.00100000 </v>
   <v>       0.00000000      -0.00100000      -0.00100000 </v>
   <v>       0.00000000      -0.00100000       0.00000000 </v>
   <v>       0.00000000      -0.00100000       0.00100000 </v>
   <v>       0.00000000       0.00000000      -0.00100000 </v>
   <v>       0.00000000       0.00000000       0.00100000 </v>
   <v>       0.00000000       0.00100000      -0.00100000 </v>
   <v>       0.00000000       0.00100000       0.00000000 </v>
   <v>       0.00000000       0.00100000       0.00100000 </v>
   <v>       0.00100000      -0.00100000      -0.00100000 </v>
   <v>       0.00100000      -0.00100000       0.00000000 </v>
   <v>       0.00100000      -0.00100000       0.00100000 </v>
   <v>       0.00100000       0.00000000      -0.00100000 </v>
   <v>       0.00100000       0.00000000       0.00000000 </v>
   <v>       0.00100000       0.00000000       0.00100000 </v>
   <v>       0.00100000       0.00100000      -0.00100000 </v>
   <v>       0.00100000       0.00100000       0.00000000 </v>
   <v>       0.00100000       0.00100000       0.00100000 </v>
   <v>      -0.00200000      -0.00200000      -0.00200000 </v>
   <v>      -0.00200000      -0.00200000       0.00000000 </v>
   <v>      -0.00200000      -0.00200000       0.00200000 </v>
   <v>      -0.00200000       0.00000000      -0.00200000 </v>
   <v>      -0.00200000       0.00000000       0.00000000 </v>
   <v>      -0.00200000       0.00000000       0.00200000 </v>
   <v>      -0.00200000       0.00200000      -0.00200000 </v>
   <v>      -0.00200000       0.00200000       0.00000000 </v>
   <v>      -0.00200000       0.00200000       0.00200000 </v>
   <v>       0.00000000      -0.00200000      -0.00200000 </v>
   <v>       0.00000000      -0.00200000       0.00000000 </v>
   <v>       0.00000000      -0.00200000       0.00200000 </v>
   <v>       0.00000000       0.00000000      -0.00200000 </v>
   <v>       0.00000000       0.00000000       0.00200000 </v>
   <v>       0.00000000       0.00200000      -0.00200000 </v>
   <v>       0.00000000       0.00200000       0.00000000 </v>
   <v>       0.00000000       0.00200000       0.00200000 </v>
   <v>       0.00200000      -0.00200000      -0.00200000 </v>
   <v>       0.00200000      -0.00200000       0.00000000 </v>
   <v>       0.00200000      -0.00200000       0.00200000 </v>
   <v>       0.00200000       0.00000000      -0.00200000 </v>
   <v>       0.00200000       0.00000000       0.00000000 </v>
   <v>       0.00200000       0.00000000       0.00200000 </v>
   <v>       0.00200000       0.00200000      -0.00200000 </v>
   <v>       0.00200000       0.00200000       0.00000000 </v>
   <v>       0.00200000       0.00200000       0.00200000 </v>
   <v>      -0.00300000      -0.00300000      -0.00300000 </v>
   <v>      -0.00300000      -0.00300000       0.00000000 </v>
   <v>      -0.00300000      -0.00300000       0.00300000 </v>
   <v>      -0.00300000       0.00000000      -0.00300000 </v>
   <v>      -0.00300000       0.00000000       0.00000000 </v>
   <v>      -0.00300000       0.00000000       0.00300000 </v>
   <v>      -0.00300000       0.00300000      -0.00300000 </v>
   <v>      -0.00300000       0.00300000       0.00000000 </v>
   <v>      -0.00300000       0.00300000       0.00300000 </v>
   <v>       0.00000000      -0.00300000      -0.00300000 </v>
   <v>       0.00000000      -0.00300000       0.00000000 </v>
   <v>       0.00000000      -0.00300000       0.00300000 </v>
   <v>       0.00000000       0.00000000      -0.00300000 </v>
   <v>       0.00000000       0.00000000       0.00300000 </v>
   <v>       0.00000000       0.00300000      -0.00300000 </v>
   <v>       0.00000000       0.00300000       0.00000000 </v>
   <v>       0.00000000       0.00300000       0.00300000 </v>
   <v>       0.00300000      -0.00300000      -0.00300000 </v>
   <v>       0.00300000      -0.00300000       0.00000000 </v>
   <v>       0.00300000      -0.00300000       0.00300000 </v>
   <v>       0.00300000       0.00000000      -0.00300000 </v>
   <v>       0.00300000       0.00000000       0.00000000 </v>
   <v>       0.00300000       0.00000000       0.00300000 </v>
   <v>       0.00300000       0.00300000      -0.00300000 </v>
   <v>       0.00300000       0.00300000       0.00000000 </v>
   <v>       0.00300000       0.00300000       0.00300000 </v>
   <v>      -0.00400000      -0.00400000      -0.00400000 </v>
   <v>      -0.00400000      -0.00400000       0.00000000 </v>
   <v>      -0.00400000      -0.00400000       0.00400000 </v>
   <v>      -0.00400000       0.00000000      -0.00400000 </v>
   <v>      -0.00400000       0.00000000       0.00000000 </v>
   <v>      -0.00400000       0.00000000       0.00400000 </v>
   <v>      -0.00400000       0.00400000      -0.00400000 </v>
   <v>      -0.00400000       0.00400000       0.00000000 </v>
   <v>      -0.00400000       0.00400000       0.00400000 </v>
   <v>       0.00000000      -0.00400000      -0.00400000 </v>
   <v>       0.00000000      -0.00400000       0.00000000 </v>
   <v>       0.00000000      -0.00400000       0.00400000 </v>
   <v>       0.00000000       0.00000000      -0.00400000 </v>
   <v>       0.00000000       0.00000000       0.00400000 </v>
   <v>       0.00000000       0.00400000      -0.00400000 </v>
   <v>       0.00000000       0.00400000       0.00000000 </v>
   <v>       0.00000000       0.00400000       0.00400000 </v>
   <v>       0.00400000      -0.00400000      -0.00400000 </v>
   <v>       0.00400000      -0.00400000       0.00000000 </v>
   <v>       0.00400000      -0.00400000       0.00400000 </v>
   <v>       0.00400000       0.00000000      -0.00400000 </v>
   <v>       0.00400000       0.00000000       0.00000000 </v>
   <v>       0.00400000       0.00000000       0.00400000 </v>
   <v>       0.00400000       0.00400000      -0.00400000 </v>
   <v>       0.00400000       0.00400000       0.00000000 </v>
   <v>       0.00400000       0.00400000       0.00400000 </v>
   <v>      -0.00800000      -0.00800000      -0.00800000 </v>
   <v>      -0.00800000      -0.00800000       0.00000000 </v>
   <v>      -0.00800000      -0.00800000       0.00800000 </v>
   <v>      -0.00800000       0.00000000      -0.00800000 </v>
   <v>      -0.00800000       0.00000000       0.00000000 </v>
   <v>      -0.00800000       0.00000000       0.00800000 </v>
   <v>      -0.00800000       0.00800000      -0.00800000 </v>
   <v>      -0.00800000       0.00800000       0.00000000 </v>
   <v>      -0.00800000       0.00800000       0.00800000 </v>
   <v>       0.00000000      -0.00800000      -0.00800000 </v>
   <v>       0.00000000      -0.00800000       0.00000000 </v>
   <v>       0.00000000      -0.00800000       0.00800000 </v>
   <v>       0.00000000       0.00000000      -0.00800000 </v>
   <v>       0.00000000       0.00000000       0.00800000 </v>
   <v>       0.00000000       0.00800000      -0.00800000 </v>
   <v>       0.00000000       0.00800000       0.00000000 </v>
   <v>       0.00000000       0.00800000       0.00800000 </v>
   <v>       0.00800000      -0.00800000      -0.00800000 </v>
   <v>       0.00800000      -0.00800000       0.00000000 </v>
   <v>       0.00800000      -0.00800000       0.00800000 </v>
   <v>       0.00800000       0.00000000      -0.00800000 </v>
   <v>       0.00800000       0.00000000       0.00000000 </v>
   <v>       0.00800000       0.00000000       0.00800000 </v>
   <v>       0.00800000       0.00800000      -0.00800000 </v>
   <v>       0.00800000       0.00800000       0.00000000 </v>
   <v>       0.00800000       0.00800000       0.00800000 </v>
   <v>      -0.01200000      -0.01200000      -0.01200000 </v>
   <v>      -0.01200000      -0.01200000       0.00000000 </v>
   <v>      -0.01200000      -0.01200000       0.01200000 </v>
   <v>      -0.01200000       0.00000000      -0.01200000 </v>
   <v>      -0.01200000       0.00000000       0.00000000 </v>
   <v>      -0.01200000       0.00000000       0.01200000 </v>
   <v>      -0.01200000       0.01200000      -0.01200000 </v>
   <v>      -0.01200000       0.01200000       0.00000000 </v>
   <v>      -0.01200000       0.01200000       0.01200000 </v>
   <v>       0.00000000      -0.01200000      -0.01200000 </v>
   <v>       0.00000000      -0.01200000       0.00000000 </v>
   <v>       0.00000000      -0.01200000       0.01200000 </v>
   <v>       0.00000000       0.00000000      -0.01200000 </v>
   <v>       0.00000000       0.00000000       0.01200000 </v>
   <v>       0.00000000       0.01200000      -0.01200000 </v>
   <v>       0.00000000       0.01200000       0.00000000 </v>
   <v>       0.00000000       0.01200000       0.01200000 </v>
   <v>       0.01200000      -0.01200000      -0.01200000 </v>
   <v>       0.01200000      -0.01200000       0.00000000 </v>
   <v>       0.01200000      -0.01200000       0.01200000 </v>
   <v>       0.01200000       0.00000000      -0.01200000 </v>
   <v>       0.01200000       0.00000000       0.00000000 </v>
   <v>       0.01200000       0.00000000       0.01200000 </v>
   <v>       0.01200000       0.01200000      -0.01200000 </v>
   <v>       0.01200000       0.01200000       0.00000000 </v>
   <v>       0.01200000       0.01200000       0.01200000 </v>
   <v>      -0.01600000      -0.01600000      -0.01600000 </v>
   <v>      -0.01600000      -0.01600000       0.00000000 </v>
   <v>      -0.01600000      -0.01600000       0.01600000 </v>
   <v>      -0.01600000       0.00000000      -0.01600000 </v>
   <v>      -0.01600000       0.00000000       0.00000000 </v>
   <v>      -0.01600000       0.00000000       0.01600000 </v>
   <v>      -0.01600000       0.01600000      -0.01600000 </v>
   <v>      -0.01600000       0.01600000       0.00000000 </v>
   <v>      -0.01600000       0.01600000       0.01600000 </v>
   <v>       0.00000000      -0.01600000      -0.01600000 </v>
   <v>       0.00000000      -0.01600000       0.00000000 </v>
   <v>       0.00000000      -0.01600000       0.01600000 </v>
   <v>       0.00000000       0.00000000      -0.01600000 </v>
   <v>       0.00000000       0.00000000       0.01600000 </v>
   <v>       0.00000000       0.01600000      -0.01600000 </v>
   <v>       0.00000000       0.01600000       0.00000000 </v>
   <v>       0.00000000       0.01600000       0.01600000 </v>
   <v>       0.01600000      -0.01600000      -0.01600000 </v>
   <v>       0.01600000      -0.01600000       0.00000000 </v>
   <v>       0.01600000      -0.01600000       0.01600000 </v>
   <v>       0.01600000       0.00000000      -0.01600000 </v>
   <v>       0.01600000       0.00000000       0.00000000 </v>
   <v>       0.01600000       0.00000000       0.01600000 </v>
   <v>       0.01600000       0.01600000      -0.01600000 </v>
   <v>       0.01600000       0.01600000       0.00000000 </v>
   <v>       0.01600000       0.01600000       0.01600000 </v>
   <v>      -0.02400000      -0.02400000      -0.02400000 </v>
   <v>      -0.02400000      -0.02400000       0.00000000 </v>
   <v>      -0.02400000      -0.02400000       0.02400000 </v>
   <v>      -0.02400000       0.00000000      -0.02400000 </v>
   <v>      -0.02400000       0.00000000       0.00000000 </v>
   <v>      -0.02400000       0.00000000       0.02400000 </v>
   <v>      -0.02400000       0.02400000      -0.02400000 </v>
   <v>      -0.02400000       0.02400000       0.00000000 </v>
   <v>      -0.02400000       0.02400000       0.02400000 </v>
   <v>       0.00000000      -0.02400000      -0.02400000 </v>
   <v>       0.00000000      -0.02400000       0.00000000 </v>
   <v>       0.00000000      -0.02400000       0.02400000 </v>
   <v>       0.00000000       0.00000000      -0.02400000 </v>
   <v>       0.00000000       0.00000000       0.02400000 </v>
   <v>       0.00000000       0.02400000      -0.02400000 </v>
   <v>       0.00000000       0.02400000       0.00000000 </v>
   <v>       0.00000000       0.02400000       0.02400000 </v>
   <v>       0.02400000      -0.02400000      -0.02400000 </v>
   <v>       0.02400000      -0.02400000       0.00000000 </v>
   <v>       0.02400000      -0.02400000       0.02400000 </v>
   <v>       0.02400000       0.00000000      -0.02400000 </v>
   <v>       0.02400000       0.00000000       0.00000000 </v>
   <v>       0.02400000       0.00000000       0.02400000 </v>
   <v>       0.02400000       0.02400000      -0.02400000 </v>
   <v>       0.02400000       0.02400000       0.00000000 </v>
   <v>       0.02400000       0.02400000       0.02400000 </v>
   <v>      -0.03200000      -0.03200000      -0.03200000 </v>
   <v>      -0.03200000      -0.03200000       0.00000000 </v>
   <v>      -0.03200000      -0.03200000       0.03200000 </v>
   <v>      -0.03200000       0.00000000      -0.03200000 </v>
   <v>      -0.03200000       0.00000000       0.00000000 </v>
   <v>      -0.03200000       0.00000000       0.03200000 </v>
   <v>      -0.03200000       0.03200000      -0.03200000 </v>
   <v>      -0.03200000       0.03200000       0.00000000 </v>
   <v>      -0.03200000       0.03200000       0.03200000 </v>
   <v>       0.00000000      -0.03200000      -0.03200000 </v>
   <v>       0.00000000      -0.03200000       0.00000000 </v>
   <v>       0.00000000      -0.03200000       0.03200000 </v>
   <v>       0.00000000       0.00000000      -0.03200000 </v>
   <v>       0.00000000       0.00000000       0.03200000 </v>
   <v>       0.00000000       0.03200000      -0.03200000 </v>
   <v>       0.00000000       0.03200000       0.00000000 </v>
   <v>       0.00000000       0.03200000       0.03200000 </v>
   <v>       0.03200000      -0.03200000      -0.03200000 </v>
   <v>       0.03200000      -0.03200000       0.00000000 </v>
   <v>       0.03200000      -0.03200000       0.03200000 </v>
   <v>       0.03200000       0.00000000      -0.03200000 </v>
   <v>       0.03200000       0.00000000       0.00000000 </v>
   <v>       0.03200000       0.00000000       0.03200000 </v>
   <v>       0.03200000       0.03200000      -0.03200000 </v>
   <v>       0.03200000       0.03200000       0.00000000 </v>
   <v>       0.03200000       0.03200000       0.03200000 </v>
   <v>      -0.04800000      -0.04800000      -0.04800000 </v>
   <v>      -0.04800000      -0.04800000       0.00000000 </v>
   <v>      -0.04800000      -0.04800000       0.04800000 </v>
   <v>      -0.04800000       0.00000000      -0.04800000 </v>
   <v>      -0.04800000       0.00000000       0.00000000 </v>
   <v>      -0.04800000       0.00000000       0.04800000 </v>
   <v>      -0.04800000       0.04800000      -0.04800000 </v>
   <v>      -0.04800000       0.04800000       0.00000000 </v>
   <v>      -0.04800000       0.04800000       0.04800000 </v>
   <v>       0.00000000      -0.04800000      -0.04800000 </v>
   <v>       0.00000000      -0.04800000       0.00000000 </v>
   <v>       0.00000000      -0.04800000       0.04800000 </v>
   <v>       0.00000000       0.00000000      -0.04800000 </v>
   <v>       0.00000000       0.00000000       0.04800000 </v>
   <v>       0.00000000       0.04800000      -0.04800000 </v>
   <v>       0.00000000       0.04800000       0.00000000 </v>
   <v>       0.00000000       0.04800000       0.04800000 </v>
   <v>       0.04800000      -0.04800000      -0.04800000 </v>
   <v>       0.04800000      -0.04800000       0.00000000 </v>
   <v>       0.04800000      -0.04800000       0.04800000 </v>
   <v>       0.04800000       0.00000000      -0.04800000 </v>
   <v>       0.04800000       0.00000000       0.00000000 </v>
   <v>       0.04800000       0.00000000       0.04800000 </v>
   <v>       0.04800000       0.04800000      -0.04800000 </v>
   <v>       0.04800000       0.04800000       0.00000000 </v>
   <v>       0.04800000       0.04800000       0.04800000 </v>
   <v>      -0.06400000      -0.06400000      -0.06400000 </v>
   <v>      -0.06400000      -0.06400000       0.00000000 </v>
   <v>      -0.06400000      -0.06400000       0.06400000 </v>
   <v>      -0.06400000       0.00000000      -0.06400000 </v>
   <v>      -0.06400000       0.00000000       0.00000000 </v>
   <v>      -0.06400000       0.00000000       0.06400000 </v>
   <v>      -0.06400000       0.06400000      -0.06400000 </v>
   <v>      -0.06400000       0.06400000       0.00000000 </v>
   <v>      -0.06400000       0.06400000       0.06400000 </v>
   <v>       0.00000000      -0.06400000      -0.06400000 </v>
   <v>       0.00000000      -0.06400000       0.00000000 </v>
   <v>       0.00000000      -0.06400000       0.06400000 </v>
   <v>       0.00000000       0.00000000      -0.06400000 </v>
   <v>       0.00000000       0.00000000       0.06400000 </v>
   <v>       0.00000000       0.06400000      -0.06400000 </v>
   <v>       0.00000000       0.06400000       0.00000000 </v>
   <v>       0.00000000       0.06400000       0.06400000 </v>
   <v>       0.06400000      -0.06400000      -0.06400000 </v>
   <v>       0.06400000      -0.06400000       0.00000000 </v>
   <v>       0.06400000      -0.06400000       0.06400000 </v>
   <v>       0.06400000       0.00000000      -0.06400000 </v>
   <v>       0.06400000       0.00000000       0.00000000 </v>
   <v>       0.06400000       0.00000000       0.06400000 </v>
   <v>       0.06400000       0.06400000      -0.06400000 </v>
   <v>       0.06400000       0.06400000       0.00000000 </v>
   <v>       0.06400000       0.06400000       0.06400000 </v>
   <v>      -0.09600000      -0.09600000      -0.09600000 </v>
   <v>      -0.09600000      -0.09600000       0.00000000 </v>
   <v>      -0.09600000      -0.09600000       0.09600000 </v>
   <v>      -0.09600000       0.00000000      -0.09600000 </v>
   <v>      -0.09600000       0.00000000       0.00000000 </v>
   <v>      -0.09600000       0.00000000       0.09600000 </v>
   <v>      -0.09600000       0.09600000      -0.09600000 </v>
   <v>      -0.09600000       0.09600000       0.00000000 </v>
   <v>      -0.09600000       0.09600000       0.09600000 </v>
   <v>       0.00000000      -0.09600000      -0.09600000 </v>
   <v>       0.00000000      -0.09600000       0.00000000 </v>
   <v>       0.00000000      -0.09600000       0.09600000 </v>
   <v>       0.00000000       0.00000000      -0.09600000 </v>
   <v>       0.00000000       0.00000000       0.09600000 </v>
   <v>       0.00000000       0.09600000      -0.09600000 </v>
   <v>       0.00000000       0.09600000       0.00000000 </v>
   <v>       0.00000000       0.09600000       0.09600000 </v>
   <v>       0.09600000      -0.09600000      -0.09600000 </v>
   <v>       0.09600000      -0.09600000       0.00000000 </v>
   <v>       0.09600000      -0.09600000       0.09600000 </v>
   <v>       0.09600000       0.00000000      -0.09600000 </v>
   <v>       0.09600000       0.00000000       0.00000000 </v>
   <v>       0.09600000       0.00000000       0.09600000 </v>
   <v>       0.09600000       0.09600000      -0.09600000 </v>
   <v>       0.09600000       0.09600000       0.00000000 </v>
   <v>       0.09600000       0.09600000       0.09600000 </v>
   <v>      -0.12800000      -0.12800000      -0.12800000 </v>
   <v>      -0.12800000      -0.12800000       0.00000000 </v>
   <v>      -0.12800000      -0.12800000       0.12800000 </v>
   <v>      -0.12800000       0.00000000      -0.12800000 </v>
   <v>      -0.12800000       0.00000000       0.00000000 </v>
   <v>      -0.12800000       0.00000000       0.12800000 </v>
   <v>      -0.12800000       0.12800000      -0.12800000 </v>
   <v>      -0.12800000       0.12800000       0.00000000 </v>
   <v>      -0.12800000       0.12800000       0.12800000 </v>
   <v>       0.00000000      -0.12800000      -0.12800000 </v>
   <v>       0.00000000      -0.12800000       0.00000000 </v>
   <v>       0.00000000      -0.12800000       0.12800000 </v>
   <v>       0.00000000       0.00000000      -0.12800000 </v>
   <v>       0.00000000       0.00000000       0.12800000 </v>
   <v>       0.00000000       0.12800000      -0.12800000 </v>
   <v>       0.00000000       0.12800000       0.00000000 </v>
   <v>       0.00000000       0.12800000       0.12800000 </v>
   <v>       0.12800000      -0.12800000      -0.12800000 </v>
   <v>       0.12800000      -0.12800000       0.00000000 </v>
   <v>       0.12800000      -0.12800000       0.12800000 </v>
   <v>       0.12800000       0.00000000      -0.12800000 </v>
   <v>       0.12800000       0.00000000       0.00000000 </v>
   <v>       0.12800000       0.00000000       0.12800000 </v>
   <v>       0.12800000       0.12800000      -0.12800000 </v>
   <v>       0.12800000       0.12800000       0.00000000 </v>
   <v>       0.12800000       0.12800000       0.12800000 </v>
   <v>      -0.19200000      -0.19200000      -0.19200000 </v>
   <v>      -0.19200000      -0.19200000       0.00000000 </v>
   <v>      -0.19200000      -0.19200000       0.19200000 </v>
   <v>      -0.19200000       0.00000000      -0.19200000 </v>
   <v>      -0.19200000       0.00000000       0.00000000 </v>
   <v>      -0.19200000       0.00000000       0.19200000 </v>
   <v>      -0.19200000       0.19200000      -0.19200000 </v>
   <v>      -0.19200000       0.19200000       0.00000000 </v>
   <v>      -0.19200000       0.19200000       0.19200000 </v>
   <v>       0.00000000      -0.19200000      -0.19200000 </v>
   <v>       0.00000000      -0.19200000       0.00000000 </v>
   <v>       0.00000000      -0.19200000       0.19200000 </v>
   <v>       0.00000000       0.00000000      -0.19200000 </v>
   <v>       0.00000000       0.00000000       0.19200000 </v>
   <v>       0.00000000       0.19200000      -0.19200000 </v>
   <v>       0.00000000       0.19200000       0.00000000 </v>
   <v>       0.00000000       0.19200000       0.19200000 </v>
   <v>       0.19200000      -0.19200000      -0.19200000 </v>
   <v>       0.19200000      -0.19200000       0.00000000 </v>
   <v>       0.19200000      -0.19200000       0.19200000 </v>
   <v>       0.19200000       0.00000000      -0.19200000 </v>
   <v>       0.19200000       0.00000000       0.00000000 </v>
   <v>       0.19200000       0.00000000       0.19200000 </v>
   <v>       0.19200000       0.19200000      -0.19200000 </v>
   <v>       0.19200000       0.19200000       0.00000000 </v>
   <v>       0.19200000       0.19200000       0.19200000 </v>
   <v>      -0.25600000      -0.25600000      -0.25600000 </v>
   <v>      -0.25600000      -0.25600000       0.00000000 </v>
   <v>      -0.25600000      -0.25600000       0.25600000 </v>
   <v>      -0.25600000       0.00000000      -0.25600000 </v>
   <v>      -0.25600000       0.00000000       0.00000000 </v>
   <v>      -0.25600000       0.00000000       0.25600000 </v>
   <v>      -0.25600000       0.25600000      -0.25600000 </v>
   <v>      -0.25600000       0.25600000       0.00000000 </v>
   <v>      -0.25600000       0.25600000       0.25600000 </v>
   <v>       0.00000000      -0.25600000      -0.25600000 </v>
   <v>       0.00000000      -0.25600000       0.00000000 </v>
   <v>       0.00000000      -0.25600000       0.25600000 </v>
   <v>       0.00000000       0.00000000      -0.25600000 </v>
   <v>       0.00000000       0.00000000       0.25600000 </v>
   <v>       0.00000000       0.25600000      -0.25600000 </v>
   <v>       0.00000000       0.25600000       0.00000000 </v>
   <v>       0.00000000       0.25600000       0.25600000 </v>
   <v>       0.25600000      -0.25600000      -0.25600000 </v>
   <v>       0.25600000      -0.25600000       0.00000000 </v>
   <v>       0.25600000      -0.25600000       0.25600000 </v>
   <v>       0.25600000       0.00000000      -0.25600000 </v>
   <v>       0.25600000       0.00000000       0.00000000 </v>
   <v>       0.25600000       0.00000000       0.25600000 </v>
   <v>       0.25600000       0.25600000      -0.25600000 </v>
   <v>       0.25600000       0.25600000       0.00000000 </v>
   <v>       0.25600000       0.25600000       0.25600000 </v>
  </varray>
  <varray name="weights" >
   <v>       0.00255754 </v>
   <v>       0.00255754 </v>
   <v>       0.00255754 </v>
   <v>       0.00255754 </v>
   <v>       0.00255754 </v>
   <v>       0.00255754 </v>
   <v>       0.00255754 </v>
   <v>       0.00255754 </v>
   <v>       0.00255754 </v>
   <v>       0.00255754 </v>
   <v>       0.00255754 </v>
   <v>       0.00255754 </v>
   <v>       0.00255754 </v>
   <v>       0.00255754 </v>
   <v>       0.00255754 </v>
   <v>       0.00255754 </v>
   <v>       0.00255754 </v>
   <v>       0.00255754 </v>
   <v>       0.00255754 </v>
   <v>       0.00255754 </v>
   <v>       0.00255754 </v>
   <v>       0.00255754 </v>
   <v>       0.00255754 </v>
   <v>       0.00255754 </v>
   <v>       0.00255754 </v>
   <v>       0.00255754 </v>
   <v>       0.00255754 </v>
   <v>       0.00255754 </v>
   <v>       0.00255754 </v>
   <v>       0.00255754 </v>
   <v>       0.00255754 </v>
   <v>       0.00255754 </v>
   <v>       0.00255754 </v>
   <v>       0.00255754 </v>
   <v>       0.00255754 </v>
   <v>       0.00255754 </v>
   <v>       0.00255754 </v>
   <v>       0.00255754 </v>
   <v>       0.00255754 </v>
   <v>       0.00255754 </v>
   <v>       0.00255754 </v>
   <v>       0.00255754 </v>
   <v>       0.00255754 </v>
   <v>       0.00255754 </v>
   <v>       0.00255754 </v>
   <v>       0.00255754 </v>
   <v>       0.00255754 </v>
   <v>       0.00255754 </v>
   <v>       0.00255754 </v>
   <v>       0.00255754 </v>
   <v>       0.00255754 </v>
   <v>       0.00255754 </v>
   <v>       0.00255754 </v>
   <v>       0.00255754 </v>
   <v>       0.00255754 </v>
   <v>       0.00255754 </v>
   <v>       0.00255754 </v>
   <v>       0.00255754 </v>
   <v>       0.00255754 </v>
   <v>       0.00255754 </v>
   <v>       0.00255754 </v>
   <v>       0.00255754 </v>
   <v>       0.00255754 </v>
   <v>       0.00255754 </v>
   <v>       0.00255754 </v>
   <v>       0.00255754 </v>
   <v>       0.00255754 </v>
   <v>       0.00255754 </v>
   <v>       0.00255754 </v>
   <v>       0.00255754 </v>
   <v>       0.00255754 </v>
   <v>       0.00255754 </v>
   <v>       0.00255754 </v>
   <v>       0.00255754 </v>
   <v>       0.00255754 </v>
   <v>       0.00255754 </v>
   <v>       0.00255754 </v>
   <v>       0.00255754 </v>
   <v>       0.00255754 </v>
   <v>       0.00255754 </v>
   <v>       0.00255754 </v>
   <v>       0.00255754 </v>
   <v>       0.00255754 </v>
   <v>       0.00255754 </v>
   <v>       0.00255754 </v>
   <v>       0.00255754 </v>
   <v>       0.00255754 </v>
   <v>       0.00255754 </v>
   <v>       0.00255754 </v>
   <v>       0.00255754 </v>
   <v>       0.00255754 </v>
   <v>       0.00255754 </v>
   <v>       0.00255754 </v>
   <v>       0.00255754 </v>
   <v>       0.00255754 </v>
   <v>       0.00255754 </v>
   <v>       0.00255754 </v>
   <v>       0.00255754 </v>
   <v>       0.00255754 </v>
   <v>       0.00255754 </v>
   <v>       0.00255754 </v>
   <v>       0.00255754 </v>
   <v>       0.00255754 </v>
   <v>       0.00255754 </v>
   <v>       0.00255754 </v>
   <v>       0.00255754 </v>
   <v>       0.00255754 </v>
   <v>       0.00255754 </v>
   <v>       0.00255754 </v>
   <v>       0.00255754 </v>
   <v>       0.00255754 </v>
   <v>       0.00255754 </v>
   <v>       0.00255754 </v>
   <v>       0.00255754 </v>
   <v>       0.00255754 </v>
   <v>       0.00255754 </v>
   <v>       0.00255754 </v>
   <v>       0.00255754 </v>
   <v>       0.00255754 </v>
   <v>       0.00255754 </v>
   <v>       0.00255754 </v>
   <v>       0.00255754 </v>
   <v>       0.00255754 </v>
   <v>       0.00255754 </v>
   <v>       0.00255754 </v>
   <v>       0.00255754 </v>
   <v>       0.00255754 </v>
   <v>       0.00255754 </v>
   <v>       0.00255754 </v>
   <v>       0.00255754 </v>
   <v>       0.00255754 </v>
   <v>       0.00255754 </v>
   <v>       0.00255754 </v>
   <v>       0.00255754 </v>
   <v>       0.00255754 </v>
   <v>       0.00255754 </v>
   <v>       0.00255754 </v>
   <v>       0.00255754 </v>
   <v>       0.00255754 </v>
   <v>       0.00255754 </v>
   <v>       0.00255754 </v>
   <v>       0.00255754 </v>
   <v>       0.00255754 </v>
   <v>       0.00255754 </v>
   <v>       0.00255754 </v>
   <v>       0.00255754 </v>
   <v>       0.00255754 </v>
   <v>       0.00255754 </v>
   <v>       0.00255754 </v>
   <v>       0.00255754 </v>
   <v>       0.00255754 </v>
   <v>       0.00255754 </v>
   <v>       0.00255754 </v>
   <v>       0.00255754 </v>
   <v>       0.00255754 </v>
   <v>       0.00255754 </v>
   <v>       0.00255754 </v>
   <v>       0.00255754 </v>
   <v>       0.00255754 </v>
   <v>       0.00255754 </v>
   <v>       0.00255754 </v>
   <v>       0.00255754 </v>
   <v>       0.00255754 </v>
   <v>       0.00255754 </v>
   <v>       0.00255754 </v>
   <v>       0.00255754 </v>
   <v>       0.00255754 </v>
   <v>       0.00255754 </v>
   <v>       0.00255754 </v>
   <v>       0.00255754 </v>
   <v>       0.00255754 </v>
   <v>       0.00255754 </v>
   <v>       0.00255754 </v>
   <v>       0.00255754 </v>
   <v>       0.00255754 </v>
   <v>       0.00255754 </v>
   <v>       0.00255754 </v>
   <v>       0.00255754 </v>
   <v>       0.00255754 </v>
   <v>       0.00255754 </v>
   <v>       0.00255754 </v>
   <v>       0.00255754 </v>
   <v>       0.00255754 </v>
   <v>       0.00255754 </v>
   <v>       0.00255754 </v>
   <v>       0.00255754 </v>
   <v>       0.00255754 </v>
   <v>       0.00255754 </v>
   <v>       0.00255754 </v>
   <v>       0.00255754 </v>
   <v>       0.00255754 </v>
   <v>       0.00255754 </v>
   <v>       0.00255754 </v>
   <v>       0.00255754 </v>
   <v>       0.00255754 </v>
   <v>       0.00255754 </v>
   <v>       0.00255754 </v>
   <v>       0.00255754 </v>
   <v>       0.00255754 </v>
   <v>       0.00255754 </v>
   <v>       0.00255754 </v>
   <v>       0.00255754 </v>
   <v>       0.00255754 </v>
   <v>       0.00255754 </v>
   <v>       0.00255754 </v>
   <v>       0.00255754 </v>
   <v>       0.00255754 </v>
   <v>       0.00255754 </v>
   <v>       0.00255754 </v>
   <v>       0.00255754 </v>
   <v>       0.00255754 </v>
   <v>       0.00255754 </v>
   <v>       0.00255754 </v>
   <v>       0.00255754 </v>
   <v>       0.00255754 </v>
   <v>       0.00255754 </v>
   <v>       0.00255754 </v>
   <v>       0.00255754 </v>
   <v>       0.00255754 </v>
   <v>       0.00255754 </v>
   <v>       0.00255754 </v>
   <v>       0.00255754 </v>
   <v>       0.00255754 </v>
   <v>       0.00255754 </v>
   <v>       0.00255754 </v>
   <v>       0.00255754 </v>
   <v>       0.00255754 </v>
   <v>       0.00255754 </v>
   <v>       0.00255754 </v>
   <v>       0.00255754 </v>
   <v>       0.00255754 </v>
   <v>       0.00255754 </v>
   <v>       0.00255754 </v>
   <v>       0.00255754 </v>
   <v>       0.00255754 </v>
   <v>       0.00255754 </v>
   <v>       0.00255754 </v>
   <v>       0.00255754 </v>
   <v>       0.00255754 </v>
   <v>       0.00255754 </v>
   <v>       0.00255754 </v>
   <v>       0.00255754 </v>
   <v>       0.00255754 </v>
   <v>       0.00255754 </v>
   <v>       0.00255754 </v>
   <v>       0.00255754 </v>
   <v>       0.00255754 </v>
   <v>       0.00255754 </v>
   <v>       0.00255754 </v>
   <v>       0.00255754 </v>
   <v>       0.00255754 </v>
   <v>       0.00255754 </v>
   <v>       0.00255754 </v>
   <v>       0.00255754 </v>
   <v>       0.00255754 </v>
   <v>       0.00255754 </v>
   <v>       0.00255754 </v>
   <v>       0.00255754 </v>
   <v>       0.00255754 </v>
   <v>       0.00255754 </v>
   <v>       0.00255754 </v>
   <v>       0.00255754 </v>
   <v>       0.00255754 </v>
   <v>       0.00255754 </v>
   <v>       0.00255754 </v>
   <v>       0.00255754 </v>
   <v>       0.00255754 </v>
   <v>       0.00255754 </v>
   <v>       0.00255754 </v>
   <v>       0.00255754 </v>
   <v>       0.00255754 </v>
   <v>       0.00255754 </v>
   <v>       0.00255754 </v>
   <v>       0.00255754 </v>
   <v>       0.00255754 </v>
   <v>       0.00255754 </v>
   <v>       0.00255754 </v>
   <v>       0.00255754 </v>
   <v>       0.00255754 </v>
   <v>       0.00255754 </v>
   <v>       0.00255754 </v>
   <v>       0.00255754 </v>
   <v>       0.00255754 </v>
   <v>       0.00255754 </v>
   <v>       0.00255754 </v>
   <v>       0.00255754 </v>
   <v>       0.00255754 </v>
   <v>       0.00255754 </v>
   <v>       0.00255754 </v>
   <v>       0.00255754 </v>
   <v>       0.00255754 </v>
   <v>       0.00255754 </v>
   <v>       0.00255754 </v>
   <v>       0.00255754 </v>
   <v>       0.00255754 </v>
   <v>       0.00255754 </v>
   <v>       0.00255754 </v>
   <v>       0.00255754 </v>
   <v>       0.00255754 </v>
   <v>       0.00255754 </v>
   <v>       0.00255754 </v>
   <v>       0.00255754 </v>
   <v>       0.00255754 </v>
   <v>       0.00255754 </v>
   <v>       0.00255754 </v>
   <v>       0.00255754 </v>
   <v>       0.00255754 </v>
   <v>       0.00255754 </v>
   <v>       0.00255754 </v>
   <v>       0.00255754 </v>
   <v>       0.00255754 </v>
   <v>       0.00255754 </v>
   <v>       0.00255754 </v>
   <v>       0.00255754 </v>
   <v>       0.00255754 </v>
   <v>       0.00255754 </v>
   <v>       0.00255754 </v>
   <v>       0.00255754 </v>
   <v>       0.00255754 </v>
   <v>       0.00255754 </v>
   <v>       0.00255754 </v>
   <v>       0.00255754 </v>
   <v>       0.00255754 </v>
   <v>       0.00255754 </v>
   <v>       0.00255754 </v>
   <v>       0.00255754 </v>
   <v>       0.00255754 </v>
   <v>       0.00255754 </v>
   <v>       0.00255754 </v>
   <v>       0.00255754 </v>
   <v>       0.00255754 </v>
   <v>       0.00255754 </v>
   <v>       0.00255754 </v>
   <v>       0.00255754 </v>
   <v>       0.00255754 </v>
   <v>       0.00255754 </v>
   <v>       0.00255754 </v>
   <v>       0.00255754 </v>
   <v>       0.00255754 </v>
   <v>       0.00255754 </v>
   <v>       0.00255754 </v>
   <v>       0.00255754 </v>
   <v>       0.00255754 </v>
   <v>       0.00255754 </v>
   <v>       0.00255754 </v>
   <v>       0.00255754 </v>
   <v>       0.00255754 </v>
   <v>       0.00255754 </v>
   <v>       0.00255754 </v>
   <v>       0.00255754 </v>
   <v>       0.00255754 </v>
   <v>       0.00255754 </v>
   <v>       0.00255754 </v>
   <v>       0.00255754 </v>
   <v>       0.00255754 </v>
   <v>       0.00255754 </v>
   <v>       0.00255754 </v>
   <v>       0.00255754 </v>
   <v>       0.00255754 </v>
   <v>       0.00255754 </v>
   <v>       0.00255754 </v>
   <v>       0.00255754 </v>
   <v>       0.00255754 </v>
   <v>       0.00255754 </v>
   <v>       0.00255754 </v>
   <v>       0.00255754 </v>
   <v>       0.00255754 </v>
   <v>       0.00255754 </v>
   <v>       0.00255754 </v>
   <v>       0.00255754 </v>
   <v>       0.00255754 </v>
   <v>       0.00255754 </v>
   <v>       0.00255754 </v>
   <v>       0.00255754 </v>
   <v>       0.00255754 </v>
   <v>       0.00255754 </v>
   <v>       0.00255754 </v>
   <v>       0.00255754 </v>
   <v>       0.00255754 </v>
   <v>       0.00255754 </v>
   <v>       0.00255754 </v>
   <v>       0.00255754 </v>
   <v>       0.00255754 </v>
   <v>       0.00255754 </v>
   <v>       0.00255754 </v>
   <v>       0.00255754 </v>
   <v>       0.00255754 </v>
   <v>       0.00255754 </v>
   <v>       0.00255754 </v>
   <v>       0.00255754 </v>
   <v>       0.00255754 </v>
  </varray>
 </kpoints>
 <parameters>
  <separator name="general" >
   <i type="string" name="SYSTEM">unknown system</i>
   <i type="logical" name="LCOMPAT"> F  </i>
  </separator>
  <separator name="electronic" >
   <i type="string" name="PREC">accura</i>
   <i name="ENMAX">    520.00000000</i>
   <i name="ENAUG">    575.89200000</i>
   <i name="EDIFF">      0.00010000</i>
   <i type="int" name="IALGO">    68</i>
   <i type="int" name="IWAVPR">    10</i>
   <i type="int" name="NBANDS">    16</i>
   <i name="NELECT">     18.00000000</i>
   <i type="int" name="TURBO">     0</i>
   <i type="int" name="IRESTART">     0</i>
   <i type="int" name="NREBOOT">     0</i>
   <i type="int" name="NMIN">     0</i>
   <i name="EREF">      0.00000000</i>
   <separator name="electronic smearing" >
    <i type="int" name="ISMEAR">     0</i>
    <i name="SIGMA">      0.00100000</i>
    <i name="KSPACING">      0.50000000</i>
    <i type="logical" name="KGAMMA"> T  </i>
   </separator>
   <separator name="electronic projectors" >
    <i type="logical" name="LREAL"> T  </i>
    <v name="ROPT">     -0.00025000     -0.00025000</v>
    <i type="int" name="LMAXPAW">  -100</i>
    <i type="int" name="LMAXMIX">     2</i>
    <i type="logical" name="NLSPLINE"> F  </i>
   </separator>
   <separator name="electronic startup" >
    <i type="int" name="ISTART">     0</i>
    <i type="int" name="ICHARG">    11</i>
    <i type="int" name="INIWAV">     1</i>
   </separator>
   <separator name="electronic spin" >
    <i type="int" name="ISPIN">     2</i>
    <i type="logical" name="LNONCOLLINEAR"> F  </i>
    <v name="MAGMOM">      1.00000000      1.00000000</v>
    <i name="NUPDOWN">     -1.00000000</i>
    <i type="logical" name="LSORBIT"> F  </i>
    <v name="SAXIS">      0.00000000      0.00000000      1.00000000</v>
    <i type="logical" name="LSPIRAL"> F  </i>
    <v name="QSPIRAL">      0.00000000      0.00000000      0.00000000</v>
    <i type="logical" name="LZEROZ"> F  </i>
   </separator>
   <separator name="electronic exchange-correlation" >
    <i type="logical" name="LASPH"> F  </i>
    <i type="logical" name="LMETAGGA"> F  </i>
   </separator>
   <separator name="electronic convergence" >
    <i type="int" name="NELM">   100</i>
    <i type="int" name="NELMDL">    -5</i>
    <i type="int" name="NELMIN">     2</i>
    <i name="ENINI">    520.00000000</i>
    <separator name="electronic convergence detail" >
     <i type="logical" name="LDIAG"> T  </i>
     <i type="logical" name="LSUBROT"> T  </i>
     <i name="WEIMIN">      0.00000000</i>
     <i name="EBREAK">      0.00000156</i>
     <i name="DEPER">      0.30000000</i>
     <i type="int" name="NRMM">     4</i>
     <i name="TIME">      0.40000000</i>
    </separator>
   </separator>
   <separator name="electronic mixer" >
    <i name="AMIX">      0.40000000</i>
    <i name="BMIX">      1.00000000</i>
    <i name="AMIN">      0.10000000</i>
    <i name="AMIX_MAG">      1.60000000</i>
    <i name="BMIX_MAG">      1.00000000</i>
    <separator name="electronic mixer details" >
     <i type="int" name="IMIX">     4</i>
     <i type="int" name="MAXMIX">   -45</i>
     <i name="WC">    100.00000000</i>
     <i type="int" name="INIMIX">     1</i>
     <i type="int" name="MIXPRE">     1</i>
     <i type="int" name="MREMOVE">     5</i>
    </separator>
   </separator>
   <separator name="electronic dipolcorrection" >
    <i type="logical" name="LDIPOL"> F  </i>
    <i type="logical" name="LMONO"> F  </i>
    <i type="int" name="IDIPOL">     0</i>
    <i name="EPSILON">      1.00000000</i>
    <v name="DIPOL">   -100.00000000   -100.00000000   -100.00000000</v>
    <i name="EFIELD">      0.00000000</i>
   </separator>
  </separator>
  <separator name="grids" >
   <i type="int" name="NGX">    30</i>
   <i type="int" name="NGY">    30</i>
   <i type="int" name="NGZ">    30</i>
   <i type="int" name="NGXF">    60</i>
   <i type="int" name="NGYF">    60</i>
   <i type="int" name="NGZF">    60</i>
   <i type="logical" name="ADDGRID"> F  </i>
  </separator>
  <separator name="ionic" >
   <i type="int" name="NSW">     0</i>
   <i type="int" name="IBRION">    -1</i>
   <i type="int" name="ISIF">     3</i>
   <i name="PSTRESS">      0.00000000</i>
   <i name="EDIFFG">      0.00100000</i>
   <i type="int" name="NFREE">     0</i>
   <i name="POTIM">      0.50000000</i>
   <i name="SMASS">     -3.00000000</i>
   <i name="SCALEE">      1.00000000</i>
  </separator>
  <separator name="ionic md" >
   <i name="TEBEG">      0.00010000</i>
   <i name="TEEND">      0.00010000</i>
   <i type="int" name="NBLOCK">     1</i>
   <i type="int" name="KBLOCK">     1</i>
   <i type="int" name="NPACO">   256</i>
   <i name="APACO">     16.00000000</i>
  </separator>
  <separator name="symmetry" >
   <i type="int" name="ISYM">     0</i>
   <i name="SYMPREC">      0.00001000</i>
  </separator>
  <separator name="dos" >
   <i type="logical" name="LORBIT"> F  </i>
   <v name="RWIGS">     -1.00000000     -1.00000000</v>
   <i type="int" name="NEDOS">   301</i>
   <i name="EMIN">     10.00000000</i>
   <i name="EMAX">    -10.00000000</i>
   <i name="EFERMI">      0.00000000</i>
  </separator>
  <separator name="writing" >
   <i type="int" name="NWRITE">     2</i>
   <i type="logical" name="LWAVE"> F  </i>
   <i type="logical" name="LCHARG"> F  </i>
   <i type="logical" name="LPARD"> F  </i>
   <i type="logical" name="LVTOT"> F  </i>
   <i type="logical" name="LVHAR"> F  </i>
   <i type="logical" name="LELF"> F  </i>
   <i type="logical" name="LOPTICS"> F  </i>
   <v name="STM">      0.00000000      0.00000000      0.00000000      0.00000000      0.00000000      0.00000000      0.00000000</v>
  </separator>
  <separator name="performance" >
   <i type="int" name="NPAR">    16</i>
   <i type="int" name="NSIM">     4</i>
   <i type="int" name="NBLK">    -1</i>
   <i type="logical" name="LPLANE"> T  </i>
   <i type="logical" name="LSCALAPACK"> F  </i>
   <i type="logical" name="LSCAAWARE"> F  </i>
   <i type="logical" name="LSCALU"> F  </i>
   <i type="logical" name="LASYNC"> F  </i>
   <i type="logical" name="LORBITALREAL"> F  </i>
  </separator>
  <separator name="miscellaneous" >
   <i type="int" name="IDIOT">     3</i>
   <i type="logical" name="LMUSIC"> F  </i>
   <v name="POMASS">     32.06600000     65.39000000</v>
   <v name="DARWINR">      0.00000000      0.00000000</v>
   <v name="DARWINV">      1.00000000      1.00000000</v>
   <i type="logical" name="LCORR"> T  </i>
  </separator>
  <i type="logical" name="GGA_COMPAT"> T  </i>
  <i type="logical" name="LBERRY"> F  </i>
  <i type="int" name="ICORELEVEL">     0</i>
  <i type="logical" name="LDAU"> F  </i>
  <i type="int" name="I_CONSTRAINED_M">     0</i>
  <separator name="electronic exchange-correlation" >
   <i type="string" name="GGA">--</i>
   <i type="int" name="VOSKOWN">     0</i>
   <i type="logical" name="LHFCALC"> F  </i>
   <i type="string" name="PRECFOCK"></i>
   <i type="logical" name="LSYMGRAD"> F  </i>
   <i type="logical" name="LHFONE"> F  </i>
   <i type="logical" name="LRHFCALC"> F  </i>
   <i type="logical" name="LTHOMAS"> F  </i>
   <i type="logical" name="LMODELHF"> F  </i>
   <i name="ENCUT4O">     -1.00000000</i>
   <i type="int" name="EXXOEP">     0</i>
   <i type="int" name="FOURORBIT">     0</i>
   <i name="AEXX">      0.00000000</i>
   <i name="HFALPHA">      0.00000000</i>
   <i name="MCALPHA">      0.00000000</i>
   <i name="ALDAX">      1.00000000</i>
   <i name="AGGAX">      1.00000000</i>
   <i name="ALDAC">      1.00000000</i>
   <i name="AGGAC">      1.00000000</i>
   <i type="int" name="NKREDX">     1</i>
   <i type="int" name="NKREDY">     1</i>
   <i type="int" name="NKREDZ">     1</i>
   <i type="logical" name="SHIFTRED"> F  </i>
   <i type="logical" name="ODDONLY"> F  </i>
   <i type="logical" name="EVENONLY"> F  </i>
   <i type="int" name="LMAXFOCK">     0</i>
   <i type="int" name="NMAXFOCKAE">     0</i>
   <i type="logical" name="LFOCKAEDFT"> F  </i>
   <i name="HFSCREEN">      0.00000000</i>
   <i name="HFSCREENC">      0.00000000</i>
   <i type="int" name="NBANDSGWLOW">     0</i>
  </separator>
  <separator name="vdW DFT" >
   <i type="logical" name="LUSE_VDW"> F  </i>
   <i name="Zab_VDW">     -0.84910000</i>
   <i name="PARAM1">      0.12340000</i>
   <i name="PARAM2">      1.00000000</i>
   <i name="PARAM3">      0.00000000</i>
  </separator>
  <separator name="model GW" >
   <i type="int" name="MODEL_GW">     0</i>
   <i name="MODEL_EPS0">     12.18062658</i>
   <i name="MODEL_ALPHA">      1.00000000</i>
  </separator>
  <separator name="linear response parameters" >
   <i type="logical" name="LEPSILON"> F  </i>
   <i type="logical" name="LRPA"> F  </i>
   <i type="logical" name="LNABLA"> F  </i>
   <i type="logical" name="LVEL"> F  </i>
   <i type="int" name="KINTER">     0</i>
   <i name="CSHIFT">      0.10000000</i>
   <i name="OMEGAMAX">     -1.00000000</i>
   <i name="DEG_THRESHOLD">      0.00200000</i>
  </separator>
  <separator name="orbital magnetization" >
   <i type="logical" name="NUCIND"> F  </i>
   <v name="MAGPOS">      0.00000000      0.00000000      0.00000000</v>
   <i type="logical" name="LNICSALL"> T  </i>
   <i type="logical" name="ORBITALMAG"> F  </i>
   <i type="logical" name="LMAGBLOCH"> F  </i>
   <i type="logical" name="LCHIMAG"> F  </i>
   <i type="logical" name="LGAUGE"> T  </i>
   <i type="int" name="MAGATOM">     0</i>
   <v name="MAGDIPOL">      0.00000000      0.00000000      0.00000000</v>
   <v name="AVECCONST">      0.00000000      0.00000000      0.00000000</v>
  </separator>
  <separator name="response functions" >
   <i type="logical" name="LADDER"> F  </i>
   <i type="logical" name="LFXC"> F  </i>
   <i type="logical" name="LHARTREE"> T  </i>
   <i type="int" name="IBSE">     0</i>
   <i type="logical" name="LTCTE"> F  </i>
   <i type="logical" name="LTETE"> F  </i>
   <i type="logical" name="LTRIPLET"> F  </i>
   <i type="logical" name="LFXCEPS"> F  </i>
   <i type="logical" name="L2ORDER"> F  </i>
   <i type="logical" name="LUSEW"> F  </i>
   <i name="ENCUTGW">     -2.00000000</i>
   <i name="ENCUTGWSOFT">     -2.00000000</i>
   <i name="ENCUTLF">     -1.00000000</i>
   <i type="int" name="LMAXMP2">    -1</i>
   <i name="SCISSOR">      0.00000000</i>
   <i type="int" name="NOMEGA">     0</i>
   <i type="int" name="NOMEGAR">     0</i>
   <i type="int" name="NBANDSGW">    -1</i>
   <i type="int" name="NBANDSO">    -1</i>
   <i type="int" name="NBANDSV">    -1</i>
   <i type="int" name="NELM">   100</i>
   <i type="int" name="DIM">     3</i>
   <i type="int" name="ANTIRES">     0</i>
   <i name="OMEGAMAX">    -30.00000000</i>
   <i name="OMEGATL">   -200.00000000</i>
   <i type="int" name="OMEGAGRID">     0</i>
   <i name="CSHIFT">     -0.10000000</i>
   <i type="logical" name="SELFENERGY"> F  </i>
   <i type="logical" name="LSPECTRAL"> F  </i>
   <i type="logical" name="ODDONLYGW"> F  </i>
   <i type="logical" name="EVENONLYGW"> F  </i>
   <i type="int" name="NKREDLFX">     1</i>
   <i type="int" name="NKREDLFY">     1</i>
   <i type="int" name="NKREDLFZ">     1</i>
   <i type="int" name="MAXMEM">  1800</i>
   <i type="int" name="TELESCOPE">     0</i>
  </separator>
 </parameters>
 <atominfo>
  <atoms>       2 </atoms>
  <types>       2 </types>
  <array name="atoms" >
   <dimension dim="1">ion</dimension>
   <field type="string">element</field>
   <field type="int">atomtype</field>
   <set>
    <rc><c>S </c><c>   1</c></rc>
    <rc><c>Zn</c><c>   2</c></rc>
   </set>
  </array>
  <array name="atomtypes" >
   <dimension dim="1">type</dimension>
   <field type="int">atomspertype</field>
   <field type="string">element</field>
   <field>mass</field>
   <field>valence</field>
   <field type="string">pseudopotential</field>
   <set>
    <rc><c>   1</c><c>S </c><c>     32.06600000</c><c>      6.00000000</c><c>  PAW_PBE S 06Sep2000                   </c></rc>
    <rc><c>   1</c><c>Zn</c><c>     65.39000000</c><c>     12.00000000</c><c>  PAW_PBE Zn 06Sep2000                  </c></rc>
   </set>
  </array>
 </atominfo>
 <structure name="initialpos" >
  <crystal>
   <varray name="basis" >
    <v>       3.34106610       0.00000000       1.92896504 </v>
    <v>       1.11368903       3.14998758       1.92896504 </v>
    <v>      -0.00000000      -0.00000000       3.85793108 </v>
   </varray>
   <i name="volume">     40.60208860 </i>
   <varray name="rec_basis" >
    <v>       0.29930566      -0.10582055       0.00000000 </v>
    <v>      -0.00000000       0.31746157       0.00000000 </v>
    <v>      -0.14965279      -0.10582048       0.25920629 </v>
   </varray>
  </crystal>
  <varray name="positions" >
   <v>       0.25000000       0.25000000       0.25000000 </v>
   <v>       0.00000000       0.00000000       0.00000000 </v>
  </varray>
 </structure>
 <calculation>
  <scstep>
   <time name="dav">   12.29   12.32</time>
   <time name="total">   12.34   12.38</time>
   <energy>
    <i name="alphaZ">     69.62690436 </i>
    <i name="ewald">  -1241.45984918 </i>
    <i name="hartreedc">   -691.00186351 </i>
    <i name="XCdc">     69.44275648 </i>
    <i name="pawpsdc">   2137.00440055 </i>
    <i name="pawaedc">  -2311.90563062 </i>
    <i name="eentropy">     -0.00000007 </i>
    <i name="bandstr">    -11.18157017 </i>
    <i name="atom">   2025.65301013 </i>
    <i name="e_fr_energy">     46.17815798 </i>
    <i name="e_wo_entrp">     46.17815805 </i>
    <i name="e_0_energy">     46.17815801 </i>
   </energy>
  </scstep>
  <scstep>
   <time name="dav">   14.76   14.79</time>
   <time name="total">   14.76   14.79</time>
   <energy>
    <i name="e_fr_energy">      3.51266153 </i>
    <i name="e_wo_entrp">      3.51266153 </i>
    <i name="e_0_energy">      3.51266153 </i>
   </energy>
  </scstep>
  <scstep>
   <time name="dav">   15.99   16.02</time>
   <time name="total">   15.99   16.02</time>
   <energy>
    <i name="e_fr_energy">      2.41429187 </i>
    <i name="e_wo_entrp">      2.41429187 </i>
    <i name="e_0_energy">      2.41429187 </i>
   </energy>
  </scstep>
  <scstep>
   <time name="dav">   15.25   15.28</time>
   <time name="total">   15.25   15.29</time>
   <energy>
    <i name="e_fr_energy">      2.41190560 </i>
    <i name="e_wo_entrp">      2.41190560 </i>
    <i name="e_0_energy">      2.41190560 </i>
   </energy>
  </scstep>
  <scstep>
   <time name="dav">   15.26   15.30</time>
   <time name="total">   15.26   15.31</time>
   <energy>
    <i name="e_fr_energy">      2.41190237 </i>
    <i name="e_wo_entrp">      2.41190237 </i>
    <i name="e_0_energy">      2.41190237 </i>
   </energy>
  </scstep>
  <scstep>
   <time name="diag">    1.90    1.90</time>
   <time name="diis">    6.64    6.65</time>
   <time name="orth">    0.14    0.14</time>
   <time name="total">    8.69    8.70</time>
   <energy>
    <i name="alphaZ">     69.62690436 </i>
    <i name="ewald">  -1241.45984918 </i>
    <i name="hartreedc">   -691.00186351 </i>
    <i name="XCdc">     69.44275648 </i>
    <i name="pawpsdc">   2137.00440055 </i>
    <i name="pawaedc">  -2311.90563062 </i>
    <i name="eentropy">      0.00000000 </i>
    <i name="bandstr">    -54.94782586 </i>
    <i name="atom">   2025.65301013 </i>
    <i name="e_fr_energy">      2.41190236 </i>
    <i name="e_wo_entrp">      2.41190236 </i>
    <i name="e_0_energy">      2.41190236 </i>
   </energy>
  </scstep>
  <structure>
   <crystal>
    <varray name="basis" >
     <v>       3.34106610       0.00000000       1.92896504 </v>
     <v>       1.11368903       3.14998758       1.92896504 </v>
     <v>      -0.00000000      -0.00000000       3.85793108 </v>
    </varray>
    <i name="volume">     40.60208860 </i>
    <varray name="rec_basis" >
     <v>       0.29930566      -0.10582055       0.00000000 </v>
     <v>      -0.00000000       0.31746157       0.00000000 </v>
     <v>      -0.14965279      -0.10582048       0.25920629 </v>
    </varray>
   </crystal>
   <varray name="positions" >
    <v>       0.25000000       0.25000000       0.25000000 </v>
    <v>       0.00000000       0.00000000       0.00000000 </v>
   </varray>
  </structure>
  <varray name="forces" >
   <v>       0.03344580       0.02365086       0.05792767 </v>
   <v>      -0.03344580      -0.02365086      -0.05792767 </v>
  </varray>
  <varray name="stress" >
   <v>     931.67521982      -1.07555606      -2.63569421 </v>
   <v>      -1.07555630     932.43649032      -1.86371501 </v>
   <v>      -2.63569481      -1.86371445     928.63289112 </v>
  </varray>
  <energy>
   <i name="e_fr_energy">      2.41190236 </i>
   <i name="e_wo_entrp">      2.41190236 </i>
   <i name="e_0_energy">      0.00000000 </i>
  </energy>
  <time name="totalsc">   99.64   99.88</time>
  <eigenvalues>
   <array>
    <dimension dim="1">band</dimension>
    <dimension dim="2">kpoint</dimension>
    <dimension dim="3">spin</dimension>
    <field>eigene</field>
    <field>occ</field>
    <set>
     <set comment="spin 1">
      <set comment="kpoint 1">
       <r>  -11.1013    1.0000 </r>
       <r>   -4.3858    1.0000 </r>
       <r>   -4.3858    1.0000 </r>
       <r>   -4.3858    1.0000 </r>
       <r>   -3.9196    1.0000 </r>
       <r>   -3.9196    1.0000 </r>
       <r>    1.8433    1.0000 </r>
       <r>    1.8433    1.0000 </r>
       <r>    1.8433    1.0000 </r>
       <r>    3.8331    0.0000 </r>
       <r>    8.2580    0.0000 </r>
       <r>    8.2580    0.0000 </r>
       <r>    8.2580    0.0000 </r>
       <r>   13.5541    0.0000 </r>
       <r>   13.5723    0.0000 </r>
       <r>   13.5723    0.0000 </r>
      </set>
      <set comment="kpoint 2">
       <r>  -11.1013    1.0000 </r>
       <r>   -4.3858    1.0000 </r>
       <r>   -4.3858    1.0000 </r>
       <r>   -4.3858    1.0000 </r>
       <r>   -3.9196    1.0000 </r>
       <r>   -3.9196    1.0000 </r>
       <r>    1.8432    1.0000 </r>
       <r>    1.8433    1.0000 </r>
       <r>    1.8433    1.0000 </r>
       <r>    3.8332    0.0000 </r>
       <r>    8.2580    0.0000 </r>
       <r>    8.2580    0.0000 </r>
       <r>    8.2580    0.0000 </r>
       <r>   13.5541    0.0000 </r>
       <r>   13.5723    0.0000 </r>
       <r>   13.5723    0.0000 </r>
      </set>
      <set comment="kpoint 3">
       <r>  -11.1013    1.0000 </r>
       <r>   -4.3858    1.0000 </r>
       <r>   -4.3858    1.0000 </r>
       <r>   -4.3858    1.0000 </r>
       <r>   -3.9196    1.0000 </r>
       <r>   -3.9196    1.0000 </r>
       <r>    1.8432    1.0000 </r>
       <r>    1.8432    1.0000 </r>
       <r>    1.8432    1.0000 </r>
       <r>    3.8332    0.0000 </r>
       <r>    8.2579    0.0000 </r>
       <r>    8.2580    0.0000 </r>
       <r>    8.2580    0.0000 </r>
       <r>   13.5541    0.0000 </r>
       <r>   13.5722    0.0000 </r>
       <r>   13.5724    0.0000 </r>
      </set>
      <set comment="kpoint 4">
       <r>  -11.1013    1.0000 </r>
       <r>   -4.3858    1.0000 </r>
       <r>   -4.3858    1.0000 </r>
       <r>   -4.3858    1.0000 </r>
       <r>   -3.9196    1.0000 </r>
       <r>   -3.9196    1.0000 </r>
       <r>    1.8429    1.0000 </r>
       <r>    1.8432    1.0000 </r>
       <r>    1.8432    1.0000 </r>
       <r>    3.8334    0.0000 </r>
       <r>    8.2579    0.0000 </r>
       <r>    8.2581    0.0000 </r>
       <r>    8.2581    0.0000 </r>
       <r>   13.5543    0.0000 </r>
       <r>   13.5719    0.0000 </r>
       <r>   13.5723    0.0000 </r>
      </set>
      <set comment="kpoint 5">
       <r>  -11.1013    1.0000 </r>
       <r>   -4.3858    1.0000 </r>
       <r>   -4.3858    1.0000 </r>
       <r>   -4.3858    1.0000 </r>
       <r>   -3.9196    1.0000 </r>
       <r>   -3.9196    1.0000 </r>
       <r>    1.8432    1.0000 </r>
       <r>    1.8432    1.0000 </r>
       <r>    1.8432    1.0000 </r>
       <r>    3.8332    0.0000 </r>
       <r>    8.2579    0.0000 </r>
       <r>    8.2580    0.0000 </r>
       <r>    8.2580    0.0000 </r>
       <r>   13.5541    0.0000 </r>
       <r>   13.5721    0.0000 </r>
       <r>   13.5723    0.0000 </r>
      </set>
      <set comment="kpoint 6">
       <r>  -11.1013    1.0000 </r>
       <r>   -4.3858    1.0000 </r>
       <r>   -4.3858    1.0000 </r>
       <r>   -4.3858    1.0000 </r>
       <r>   -3.9196    1.0000 </r>
       <r>   -3.9196    1.0000 </r>
       <r>    1.8432    1.0000 </r>
       <r>    1.8433    1.0000 </r>
       <r>    1.8433    1.0000 </r>
       <r>    3.8332    0.0000 </r>
       <r>    8.2580    0.0000 </r>
       <r>    8.2580    0.0000 </r>
       <r>    8.2580    0.0000 </r>
       <r>   13.5541    0.0000 </r>
       <r>   13.5723    0.0000 </r>
       <r>   13.5723    0.0000 </r>
      </set>
      <set comment="kpoint 7">
       <r>  -11.1013    1.0000 </r>
       <r>   -4.3858    1.0000 </r>
       <r>   -4.3858    1.0000 </r>
       <r>   -4.3858    1.0000 </r>
       <r>   -3.9196    1.0000 </r>
       <r>   -3.9196    1.0000 </r>
       <r>    1.8430    1.0000 </r>
       <r>    1.8432    1.0000 </r>
       <r>    1.8433    1.0000 </r>
       <r>    3.8333    0.0000 </r>
       <r>    8.2579    0.0000 </r>
       <r>    8.2580    0.0000 </r>
       <r>    8.2581    0.0000 </r>
       <r>   13.5542    0.0000 </r>
       <r>   13.5721    0.0000 </r>
       <r>   13.5723    0.0000 </r>
      </set>
      <set comment="kpoint 8">
       <r>  -11.1013    1.0000 </r>
       <r>   -4.3858    1.0000 </r>
       <r>   -4.3858    1.0000 </r>
       <r>   -4.3858    1.0000 </r>
       <r>   -3.9196    1.0000 </r>
       <r>   -3.9196    1.0000 </r>
       <r>    1.8429    1.0000 </r>
       <r>    1.8432    1.0000 </r>
       <r>    1.8432    1.0000 </r>
       <r>    3.8334    0.0000 </r>
       <r>    8.2579    0.0000 </r>
       <r>    8.2581    0.0000 </r>
       <r>    8.2581    0.0000 </r>
       <r>   13.5543    0.0000 </r>
       <r>   13.5719    0.0000 </r>
       <r>   13.5723    0.0000 </r>
      </set>
      <set comment="kpoint 9">
       <r>  -11.1013    1.0000 </r>
       <r>   -4.3858    1.0000 </r>
       <r>   -4.3858    1.0000 </r>
       <r>   -4.3858    1.0000 </r>
       <r>   -3.9196    1.0000 </r>
       <r>   -3.9196    1.0000 </r>
       <r>    1.8430    1.0000 </r>
       <r>    1.8432    1.0000 </r>
       <r>    1.8433    1.0000 </r>
       <r>    3.8333    0.0000 </r>
       <r>    8.2579    0.0000 </r>
       <r>    8.2580    0.0000 </r>
       <r>    8.2581    0.0000 </r>
       <r>   13.5542    0.0000 </r>
       <r>   13.5721    0.0000 </r>
       <r>   13.5723    0.0000 </r>
      </set>
      <set comment="kpoint 10">
       <r>  -11.1013    1.0000 </r>
       <r>   -4.3858    1.0000 </r>
       <r>   -4.3858    1.0000 </r>
       <r>   -4.3858    1.0000 </r>
       <r>   -3.9196    1.0000 </r>
       <r>   -3.9196    1.0000 </r>
       <r>    1.8429    1.0000 </r>
       <r>    1.8432    1.0000 </r>
       <r>    1.8432    1.0000 </r>
       <r>    3.8334    0.0000 </r>
       <r>    8.2579    0.0000 </r>
       <r>    8.2581    0.0000 </r>
       <r>    8.2581    0.0000 </r>
       <r>   13.5543    0.0000 </r>
       <r>   13.5719    0.0000 </r>
       <r>   13.5723    0.0000 </r>
      </set>
      <set comment="kpoint 11">
       <r>  -11.1013    1.0000 </r>
       <r>   -4.3858    1.0000 </r>
       <r>   -4.3858    1.0000 </r>
       <r>   -4.3858    1.0000 </r>
       <r>   -3.9196    1.0000 </r>
       <r>   -3.9196    1.0000 </r>
       <r>    1.8432    1.0000 </r>
       <r>    1.8432    1.0000 </r>
       <r>    1.8432    1.0000 </r>
       <r>    3.8332    0.0000 </r>
       <r>    8.2579    0.0000 </r>
       <r>    8.2580    0.0000 </r>
       <r>    8.2580    0.0000 </r>
       <r>   13.5541    0.0000 </r>
       <r>   13.5722    0.0000 </r>
       <r>   13.5723    0.0000 </r>
      </set>
      <set comment="kpoint 12">
       <r>  -11.1013    1.0000 </r>
       <r>   -4.3858    1.0000 </r>
       <r>   -4.3858    1.0000 </r>
       <r>   -4.3858    1.0000 </r>
       <r>   -3.9196    1.0000 </r>
       <r>   -3.9196    1.0000 </r>
       <r>    1.8432    1.0000 </r>
       <r>    1.8433    1.0000 </r>
       <r>    1.8433    1.0000 </r>
       <r>    3.8332    0.0000 </r>
       <r>    8.2580    0.0000 </r>
       <r>    8.2580    0.0000 </r>
       <r>    8.2580    0.0000 </r>
       <r>   13.5541    0.0000 </r>
       <r>   13.5723    0.0000 </r>
       <r>   13.5723    0.0000 </r>
      </set>
      <set comment="kpoint 13">
       <r>  -11.1013    1.0000 </r>
       <r>   -4.3858    1.0000 </r>
       <r>   -4.3858    1.0000 </r>
       <r>   -4.3858    1.0000 </r>
       <r>   -3.9196    1.0000 </r>
       <r>   -3.9196    1.0000 </r>
       <r>    1.8430    1.0000 </r>
       <r>    1.8432    1.0000 </r>
       <r>    1.8433    1.0000 </r>
       <r>    3.8333    0.0000 </r>
       <r>    8.2579    0.0000 </r>
       <r>    8.2580    0.0000 </r>
       <r>    8.2581    0.0000 </r>
       <r>   13.5542    0.0000 </r>
       <r>   13.5721    0.0000 </r>
       <r>   13.5723    0.0000 </r>
      </set>
      <set comment="kpoint 14">
       <r>  -11.1013    1.0000 </r>
       <r>   -4.3858    1.0000 </r>
       <r>   -4.3858    1.0000 </r>
       <r>   -4.3858    1.0000 </r>
       <r>   -3.9196    1.0000 </r>
       <r>   -3.9196    1.0000 </r>
       <r>    1.8432    1.0000 </r>
       <r>    1.8433    1.0000 </r>
       <r>    1.8433    1.0000 </r>
       <r>    3.8332    0.0000 </r>
       <r>    8.2580    0.0000 </r>
       <r>    8.2580    0.0000 </r>
       <r>    8.2580    0.0000 </r>
       <r>   13.5541    0.0000 </r>
       <r>   13.5723    0.0000 </r>
       <r>   13.5723    0.0000 </r>
      </set>
      <set comment="kpoint 15">
       <r>  -11.1013    1.0000 </r>
       <r>   -4.3858    1.0000 </r>
       <r>   -4.3858    1.0000 </r>
       <r>   -4.3858    1.0000 </r>
       <r>   -3.9196    1.0000 </r>
       <r>   -3.9196    1.0000 </r>
       <r>    1.8432    1.0000 </r>
       <r>    1.8433    1.0000 </r>
       <r>    1.8433    1.0000 </r>
       <r>    3.8332    0.0000 </r>
       <r>    8.2580    0.0000 </r>
       <r>    8.2580    0.0000 </r>
       <r>    8.2580    0.0000 </r>
       <r>   13.5541    0.0000 </r>
       <r>   13.5723    0.0000 </r>
       <r>   13.5723    0.0000 </r>
      </set>
      <set comment="kpoint 16">
       <r>  -11.1013    1.0000 </r>
       <r>   -4.3858    1.0000 </r>
       <r>   -4.3858    1.0000 </r>
       <r>   -4.3858    1.0000 </r>
       <r>   -3.9196    1.0000 </r>
       <r>   -3.9196    1.0000 </r>
       <r>    1.8430    1.0000 </r>
       <r>    1.8432    1.0000 </r>
       <r>    1.8433    1.0000 </r>
       <r>    3.8333    0.0000 </r>
       <r>    8.2579    0.0000 </r>
       <r>    8.2580    0.0000 </r>
       <r>    8.2581    0.0000 </r>
       <r>   13.5542    0.0000 </r>
       <r>   13.5721    0.0000 </r>
       <r>   13.5723    0.0000 </r>
      </set>
      <set comment="kpoint 17">
       <r>  -11.1013    1.0000 </r>
       <r>   -4.3858    1.0000 </r>
       <r>   -4.3858    1.0000 </r>
       <r>   -4.3858    1.0000 </r>
       <r>   -3.9196    1.0000 </r>
       <r>   -3.9196    1.0000 </r>
       <r>    1.8432    1.0000 </r>
       <r>    1.8433    1.0000 </r>
       <r>    1.8433    1.0000 </r>
       <r>    3.8332    0.0000 </r>
       <r>    8.2580    0.0000 </r>
       <r>    8.2580    0.0000 </r>
       <r>    8.2580    0.0000 </r>
       <r>   13.5541    0.0000 </r>
       <r>   13.5723    0.0000 </r>
       <r>   13.5723    0.0000 </r>
      </set>
      <set comment="kpoint 18">
       <r>  -11.1013    1.0000 </r>
       <r>   -4.3858    1.0000 </r>
       <r>   -4.3858    1.0000 </r>
       <r>   -4.3858    1.0000 </r>
       <r>   -3.9196    1.0000 </r>
       <r>   -3.9196    1.0000 </r>
       <r>    1.8432    1.0000 </r>
       <r>    1.8432    1.0000 </r>
       <r>    1.8432    1.0000 </r>
       <r>    3.8332    0.0000 </r>
       <r>    8.2579    0.0000 </r>
       <r>    8.2580    0.0000 </r>
       <r>    8.2580    0.0000 </r>
       <r>   13.5541    0.0000 </r>
       <r>   13.5721    0.0000 </r>
       <r>   13.5723    0.0000 </r>
      </set>
      <set comment="kpoint 19">
       <r>  -11.1013    1.0000 </r>
       <r>   -4.3858    1.0000 </r>
       <r>   -4.3858    1.0000 </r>
       <r>   -4.3858    1.0000 </r>
       <r>   -3.9196    1.0000 </r>
       <r>   -3.9196    1.0000 </r>
       <r>    1.8429    1.0000 </r>
       <r>    1.8432    1.0000 </r>
       <r>    1.8432    1.0000 </r>
       <r>    3.8334    0.0000 </r>
       <r>    8.2579    0.0000 </r>
       <r>    8.2581    0.0000 </r>
       <r>    8.2581    0.0000 </r>
       <r>   13.5543    0.0000 </r>
       <r>   13.5719    0.0000 </r>
       <r>   13.5723    0.0000 </r>
      </set>
      <set comment="kpoint 20">
       <r>  -11.1013    1.0000 </r>
       <r>   -4.3858    1.0000 </r>
       <r>   -4.3858    1.0000 </r>
       <r>   -4.3858    1.0000 </r>
       <r>   -3.9196    1.0000 </r>
       <r>   -3.9196    1.0000 </r>
       <r>    1.8430    1.0000 </r>
       <r>    1.8432    1.0000 </r>
       <r>    1.8433    1.0000 </r>
       <r>    3.8333    0.0000 </r>
       <r>    8.2579    0.0000 </r>
       <r>    8.2580    0.0000 </r>
       <r>    8.2581    0.0000 </r>
       <r>   13.5542    0.0000 </r>
       <r>   13.5721    0.0000 </r>
       <r>   13.5723    0.0000 </r>
      </set>
      <set comment="kpoint 21">
       <r>  -11.1013    1.0000 </r>
       <r>   -4.3858    1.0000 </r>
       <r>   -4.3858    1.0000 </r>
       <r>   -4.3858    1.0000 </r>
       <r>   -3.9196    1.0000 </r>
       <r>   -3.9196    1.0000 </r>
       <r>    1.8429    1.0000 </r>
       <r>    1.8432    1.0000 </r>
       <r>    1.8432    1.0000 </r>
       <r>    3.8334    0.0000 </r>
       <r>    8.2579    0.0000 </r>
       <r>    8.2581    0.0000 </r>
       <r>    8.2581    0.0000 </r>
       <r>   13.5543    0.0000 </r>
       <r>   13.5719    0.0000 </r>
       <r>   13.5723    0.0000 </r>
      </set>
      <set comment="kpoint 22">
       <r>  -11.1013    1.0000 </r>
       <r>   -4.3858    1.0000 </r>
       <r>   -4.3858    1.0000 </r>
       <r>   -4.3858    1.0000 </r>
       <r>   -3.9196    1.0000 </r>
       <r>   -3.9196    1.0000 </r>
       <r>    1.8430    1.0000 </r>
       <r>    1.8432    1.0000 </r>
       <r>    1.8433    1.0000 </r>
       <r>    3.8333    0.0000 </r>
       <r>    8.2579    0.0000 </r>
       <r>    8.2580    0.0000 </r>
       <r>    8.2581    0.0000 </r>
       <r>   13.5542    0.0000 </r>
       <r>   13.5721    0.0000 </r>
       <r>   13.5723    0.0000 </r>
      </set>
      <set comment="kpoint 23">
       <r>  -11.1013    1.0000 </r>
       <r>   -4.3858    1.0000 </r>
       <r>   -4.3858    1.0000 </r>
       <r>   -4.3858    1.0000 </r>
       <r>   -3.9196    1.0000 </r>
       <r>   -3.9196    1.0000 </r>
       <r>    1.8432    1.0000 </r>
       <r>    1.8433    1.0000 </r>
       <r>    1.8433    1.0000 </r>
       <r>    3.8332    0.0000 </r>
       <r>    8.2580    0.0000 </r>
       <r>    8.2580    0.0000 </r>
       <r>    8.2580    0.0000 </r>
       <r>   13.5541    0.0000 </r>
       <r>   13.5723    0.0000 </r>
       <r>   13.5723    0.0000 </r>
      </set>
      <set comment="kpoint 24">
       <r>  -11.1013    1.0000 </r>
       <r>   -4.3858    1.0000 </r>
       <r>   -4.3858    1.0000 </r>
       <r>   -4.3858    1.0000 </r>
       <r>   -3.9196    1.0000 </r>
       <r>   -3.9196    1.0000 </r>
       <r>    1.8432    1.0000 </r>
       <r>    1.8432    1.0000 </r>
       <r>    1.8432    1.0000 </r>
       <r>    3.8332    0.0000 </r>
       <r>    8.2579    0.0000 </r>
       <r>    8.2580    0.0000 </r>
       <r>    8.2580    0.0000 </r>
       <r>   13.5541    0.0000 </r>
       <r>   13.5721    0.0000 </r>
       <r>   13.5723    0.0000 </r>
      </set>
      <set comment="kpoint 25">
       <r>  -11.1013    1.0000 </r>
       <r>   -4.3858    1.0000 </r>
       <r>   -4.3858    1.0000 </r>
       <r>   -4.3858    1.0000 </r>
       <r>   -3.9196    1.0000 </r>
       <r>   -3.9196    1.0000 </r>
       <r>    1.8429    1.0000 </r>
       <r>    1.8432    1.0000 </r>
       <r>    1.8432    1.0000 </r>
       <r>    3.8334    0.0000 </r>
       <r>    8.2579    0.0000 </r>
       <r>    8.2581    0.0000 </r>
       <r>    8.2581    0.0000 </r>
       <r>   13.5543    0.0000 </r>
       <r>   13.5719    0.0000 </r>
       <r>   13.5723    0.0000 </r>
      </set>
      <set comment="kpoint 26">
       <r>  -11.1013    1.0000 </r>
       <r>   -4.3858    1.0000 </r>
       <r>   -4.3858    1.0000 </r>
       <r>   -4.3858    1.0000 </r>
       <r>   -3.9196    1.0000 </r>
       <r>   -3.9196    1.0000 </r>
       <r>    1.8432    1.0000 </r>
       <r>    1.8432    1.0000 </r>
       <r>    1.8432    1.0000 </r>
       <r>    3.8332    0.0000 </r>
       <r>    8.2579    0.0000 </r>
       <r>    8.2580    0.0000 </r>
       <r>    8.2580    0.0000 </r>
       <r>   13.5541    0.0000 </r>
       <r>   13.5722    0.0000 </r>
       <r>   13.5723    0.0000 </r>
      </set>
      <set comment="kpoint 27">
       <r>  -11.1013    1.0000 </r>
       <r>   -4.3858    1.0000 </r>
       <r>   -4.3858    1.0000 </r>
       <r>   -4.3858    1.0000 </r>
       <r>   -3.9196    1.0000 </r>
       <r>   -3.9196    1.0000 </r>
       <r>    1.8432    1.0000 </r>
       <r>    1.8433    1.0000 </r>
       <r>    1.8433    1.0000 </r>
       <r>    3.8332    0.0000 </r>
       <r>    8.2580    0.0000 </r>
       <r>    8.2580    0.0000 </r>
       <r>    8.2580    0.0000 </r>
       <r>   13.5541    0.0000 </r>
       <r>   13.5723    0.0000 </r>
       <r>   13.5723    0.0000 </r>
      </set>
      <set comment="kpoint 28">
       <r>  -11.1013    1.0000 </r>
       <r>   -4.3858    1.0000 </r>
       <r>   -4.3858    1.0000 </r>
       <r>   -4.3858    1.0000 </r>
       <r>   -3.9196    1.0000 </r>
       <r>   -3.9196    1.0000 </r>
       <r>    1.8428    1.0000 </r>
       <r>    1.8432    1.0000 </r>
       <r>    1.8432    1.0000 </r>
       <r>    3.8335    0.0000 </r>
       <r>    8.2579    0.0000 </r>
       <r>    8.2581    0.0000 </r>
       <r>    8.2581    0.0000 </r>
       <r>   13.5543    0.0000 </r>
       <r>   13.5721    0.0000 </r>
       <r>   13.5721    0.0000 </r>
      </set>
      <set comment="kpoint 29">
       <r>  -11.1012    1.0000 </r>
       <r>   -4.3858    1.0000 </r>
       <r>   -4.3858    1.0000 </r>
       <r>   -4.3858    1.0000 </r>
       <r>   -3.9196    1.0000 </r>
       <r>   -3.9196    1.0000 </r>
       <r>    1.8428    1.0000 </r>
       <r>    1.8432    1.0000 </r>
       <r>    1.8432    1.0000 </r>
       <r>    3.8336    0.0000 </r>
       <r>    8.2578    0.0000 </r>
       <r>    8.2582    0.0000 </r>
       <r>    8.2582    0.0000 </r>
       <r>   13.5544    0.0000 </r>
       <r>   13.5716    0.0000 </r>
       <r>   13.5724    0.0000 </r>
      </set>
      <set comment="kpoint 30">
       <r>  -11.1012    1.0000 </r>
       <r>   -4.3858    1.0000 </r>
       <r>   -4.3858    1.0000 </r>
       <r>   -4.3858    1.0000 </r>
       <r>   -3.9196    1.0000 </r>
       <r>   -3.9196    1.0000 </r>
       <r>    1.8419    1.0000 </r>
       <r>    1.8430    1.0000 </r>
       <r>    1.8431    1.0000 </r>
       <r>    3.8344    0.0000 </r>
       <r>    8.2575    0.0000 </r>
       <r>    8.2584    0.0000 </r>
       <r>    8.2584    0.0000 </r>
       <r>   13.5551    0.0000 </r>
       <r>   13.5707    0.0000 </r>
       <r>   13.5722    0.0000 </r>
      </set>
      <set comment="kpoint 31">
       <r>  -11.1012    1.0000 </r>
       <r>   -4.3858    1.0000 </r>
       <r>   -4.3858    1.0000 </r>
       <r>   -4.3858    1.0000 </r>
       <r>   -3.9196    1.0000 </r>
       <r>   -3.9196    1.0000 </r>
       <r>    1.8428    1.0000 </r>
       <r>    1.8432    1.0000 </r>
       <r>    1.8432    1.0000 </r>
       <r>    3.8336    0.0000 </r>
       <r>    8.2578    0.0000 </r>
       <r>    8.2582    0.0000 </r>
       <r>    8.2582    0.0000 </r>
       <r>   13.5544    0.0000 </r>
       <r>   13.5716    0.0000 </r>
       <r>   13.5724    0.0000 </r>
      </set>
      <set comment="kpoint 32">
       <r>  -11.1013    1.0000 </r>
       <r>   -4.3858    1.0000 </r>
       <r>   -4.3858    1.0000 </r>
       <r>   -4.3858    1.0000 </r>
       <r>   -3.9196    1.0000 </r>
       <r>   -3.9196    1.0000 </r>
       <r>    1.8428    1.0000 </r>
       <r>    1.8432    1.0000 </r>
       <r>    1.8432    1.0000 </r>
       <r>    3.8335    0.0000 </r>
       <r>    8.2579    0.0000 </r>
       <r>    8.2581    0.0000 </r>
       <r>    8.2581    0.0000 </r>
       <r>   13.5543    0.0000 </r>
       <r>   13.5721    0.0000 </r>
       <r>   13.5721    0.0000 </r>
      </set>
      <set comment="kpoint 33">
       <r>  -11.1012    1.0000 </r>
       <r>   -4.3858    1.0000 </r>
       <r>   -4.3858    1.0000 </r>
       <r>   -4.3858    1.0000 </r>
       <r>   -3.9196    1.0000 </r>
       <r>   -3.9196    1.0000 </r>
       <r>    1.8422    1.0000 </r>
       <r>    1.8430    1.0000 </r>
       <r>    1.8432    1.0000 </r>
       <r>    3.8341    0.0000 </r>
       <r>    8.2577    0.0000 </r>
       <r>    8.2581    0.0000 </r>
       <r>    8.2583    0.0000 </r>
       <r>   13.5548    0.0000 </r>
       <r>   13.5713    0.0000 </r>
       <r>   13.5721    0.0000 </r>
      </set>
      <set comment="kpoint 34">
       <r>  -11.1012    1.0000 </r>
       <r>   -4.3858    1.0000 </r>
       <r>   -4.3858    1.0000 </r>
       <r>   -4.3858    1.0000 </r>
       <r>   -3.9196    1.0000 </r>
       <r>   -3.9196    1.0000 </r>
       <r>    1.8419    1.0000 </r>
       <r>    1.8430    1.0000 </r>
       <r>    1.8431    1.0000 </r>
       <r>    3.8344    0.0000 </r>
       <r>    8.2575    0.0000 </r>
       <r>    8.2584    0.0000 </r>
       <r>    8.2584    0.0000 </r>
       <r>   13.5551    0.0000 </r>
       <r>   13.5707    0.0000 </r>
       <r>   13.5722    0.0000 </r>
      </set>
      <set comment="kpoint 35">
       <r>  -11.1012    1.0000 </r>
       <r>   -4.3858    1.0000 </r>
       <r>   -4.3858    1.0000 </r>
       <r>   -4.3858    1.0000 </r>
       <r>   -3.9196    1.0000 </r>
       <r>   -3.9196    1.0000 </r>
       <r>    1.8422    1.0000 </r>
       <r>    1.8430    1.0000 </r>
       <r>    1.8432    1.0000 </r>
       <r>    3.8341    0.0000 </r>
       <r>    8.2577    0.0000 </r>
       <r>    8.2581    0.0000 </r>
       <r>    8.2583    0.0000 </r>
       <r>   13.5548    0.0000 </r>
       <r>   13.5713    0.0000 </r>
       <r>   13.5721    0.0000 </r>
      </set>
      <set comment="kpoint 36">
       <r>  -11.1012    1.0000 </r>
       <r>   -4.3858    1.0000 </r>
       <r>   -4.3858    1.0000 </r>
       <r>   -4.3858    1.0000 </r>
       <r>   -3.9196    1.0000 </r>
       <r>   -3.9196    1.0000 </r>
       <r>    1.8419    1.0000 </r>
       <r>    1.8430    1.0000 </r>
       <r>    1.8431    1.0000 </r>
       <r>    3.8344    0.0000 </r>
       <r>    8.2575    0.0000 </r>
       <r>    8.2584    0.0000 </r>
       <r>    8.2584    0.0000 </r>
       <r>   13.5551    0.0000 </r>
       <r>   13.5707    0.0000 </r>
       <r>   13.5722    0.0000 </r>
      </set>
      <set comment="kpoint 37">
       <r>  -11.1012    1.0000 </r>
       <r>   -4.3858    1.0000 </r>
       <r>   -4.3858    1.0000 </r>
       <r>   -4.3858    1.0000 </r>
       <r>   -3.9196    1.0000 </r>
       <r>   -3.9196    1.0000 </r>
       <r>    1.8428    1.0000 </r>
       <r>    1.8432    1.0000 </r>
       <r>    1.8432    1.0000 </r>
       <r>    3.8336    0.0000 </r>
       <r>    8.2578    0.0000 </r>
       <r>    8.2582    0.0000 </r>
       <r>    8.2582    0.0000 </r>
       <r>   13.5544    0.0000 </r>
       <r>   13.5716    0.0000 </r>
       <r>   13.5724    0.0000 </r>
      </set>
      <set comment="kpoint 38">
       <r>  -11.1013    1.0000 </r>
       <r>   -4.3858    1.0000 </r>
       <r>   -4.3858    1.0000 </r>
       <r>   -4.3858    1.0000 </r>
       <r>   -3.9196    1.0000 </r>
       <r>   -3.9196    1.0000 </r>
       <r>    1.8428    1.0000 </r>
       <r>    1.8432    1.0000 </r>
       <r>    1.8432    1.0000 </r>
       <r>    3.8335    0.0000 </r>
       <r>    8.2579    0.0000 </r>
       <r>    8.2581    0.0000 </r>
       <r>    8.2581    0.0000 </r>
       <r>   13.5543    0.0000 </r>
       <r>   13.5721    0.0000 </r>
       <r>   13.5721    0.0000 </r>
      </set>
      <set comment="kpoint 39">
       <r>  -11.1012    1.0000 </r>
       <r>   -4.3858    1.0000 </r>
       <r>   -4.3858    1.0000 </r>
       <r>   -4.3858    1.0000 </r>
       <r>   -3.9196    1.0000 </r>
       <r>   -3.9196    1.0000 </r>
       <r>    1.8422    1.0000 </r>
       <r>    1.8430    1.0000 </r>
       <r>    1.8432    1.0000 </r>
       <r>    3.8341    0.0000 </r>
       <r>    8.2577    0.0000 </r>
       <r>    8.2581    0.0000 </r>
       <r>    8.2583    0.0000 </r>
       <r>   13.5548    0.0000 </r>
       <r>   13.5713    0.0000 </r>
       <r>   13.5721    0.0000 </r>
      </set>
      <set comment="kpoint 40">
       <r>  -11.1013    1.0000 </r>
       <r>   -4.3858    1.0000 </r>
       <r>   -4.3858    1.0000 </r>
       <r>   -4.3858    1.0000 </r>
       <r>   -3.9196    1.0000 </r>
       <r>   -3.9196    1.0000 </r>
       <r>    1.8428    1.0000 </r>
       <r>    1.8432    1.0000 </r>
       <r>    1.8432    1.0000 </r>
       <r>    3.8335    0.0000 </r>
       <r>    8.2579    0.0000 </r>
       <r>    8.2581    0.0000 </r>
       <r>    8.2581    0.0000 </r>
       <r>   13.5543    0.0000 </r>
       <r>   13.5721    0.0000 </r>
       <r>   13.5721    0.0000 </r>
      </set>
      <set comment="kpoint 41">
       <r>  -11.1013    1.0000 </r>
       <r>   -4.3858    1.0000 </r>
       <r>   -4.3858    1.0000 </r>
       <r>   -4.3858    1.0000 </r>
       <r>   -3.9196    1.0000 </r>
       <r>   -3.9196    1.0000 </r>
       <r>    1.8428    1.0000 </r>
       <r>    1.8432    1.0000 </r>
       <r>    1.8432    1.0000 </r>
       <r>    3.8335    0.0000 </r>
       <r>    8.2579    0.0000 </r>
       <r>    8.2581    0.0000 </r>
       <r>    8.2581    0.0000 </r>
       <r>   13.5543    0.0000 </r>
       <r>   13.5721    0.0000 </r>
       <r>   13.5721    0.0000 </r>
      </set>
      <set comment="kpoint 42">
       <r>  -11.1012    1.0000 </r>
       <r>   -4.3858    1.0000 </r>
       <r>   -4.3858    1.0000 </r>
       <r>   -4.3858    1.0000 </r>
       <r>   -3.9196    1.0000 </r>
       <r>   -3.9196    1.0000 </r>
       <r>    1.8422    1.0000 </r>
       <r>    1.8430    1.0000 </r>
[...]
       </set>
       <set comment="band 12">
        <r>  0.0365  0.0414  0.0678  0.0378  0.0000  0.0000  0.0000  0.0000  0.0000 </r>
        <r>  0.0288  0.0199  0.0419  0.0462  0.0071  0.0032  0.0103  0.0147  0.0134 </r>
       </set>
       <set comment="band 13">
        <r>  0.0000  0.0419  0.0157  0.0052  0.0000  0.0000  0.0000  0.0000  0.0000 </r>
        <r>  0.0000  0.1750  0.0656  0.0219  0.0006  0.0017  0.0075  0.0034  0.0070 </r>
       </set>
       <set comment="band 14">
        <r>  0.0000  0.0013  0.0005  0.0002  0.0000  0.0000  0.0000  0.0000  0.0000 </r>
        <r>  0.0000  0.0268  0.0101  0.0034  0.0402  0.0165  0.0303  0.0135  0.0194 </r>
       </set>
       <set comment="band 15">
        <r>  0.0294  0.0005  0.0109  0.0307  0.0000  0.0000  0.0000  0.0000  0.0000 </r>
        <r>  0.0004  0.0240  0.0801  0.1444  0.0010  0.0023  0.0019  0.0287  0.0163 </r>
       </set>
       <set comment="band 16">
        <r>  0.0029  0.0007  0.0249  0.0691  0.0000  0.0000  0.0000  0.0000  0.0000 </r>
        <r>  0.0033  0.0330  0.0531  0.0219  0.0128  0.0113  0.0165  0.0071  0.0058 </r>
       </set>
      </set>
      <set comment="kpoint 387">
       <set comment="band 1">
        <r>  0.5757  0.0001  0.0000  0.0009  0.0000  0.0000  0.0000  0.0000  0.0000 </r>
        <r>  0.0680  0.0012  0.0000  0.0094  0.0034  0.0000  0.0029  0.0000  0.0052 </r>
       </set>
       <set comment="band 2">
        <r>  0.0003  0.0066  0.0000  0.0529  0.0000  0.0000  0.0000  0.0000  0.0000 </r>
        <r>  0.0203  0.0004  0.0000  0.0029  0.2389  0.0000  0.2017  0.0000  0.3657 </r>
       </set>
       <set comment="band 3">
        <r>  0.0000  0.0143  0.0296  0.0018  0.0000  0.0000  0.0000  0.0000  0.0000 </r>
        <r>  0.0000  0.0007  0.0014  0.0001  0.0039  0.2999  0.1924  0.2745  0.1164 </r>
       </set>
       <set comment="band 4">
        <r>  0.0000  0.0263  0.0161  0.0033  0.0000  0.0000  0.0000  0.0000  0.0000 </r>
        <r>  0.0000  0.0012  0.0007  0.0002  0.0073  0.1633  0.3536  0.1495  0.2135 </r>
       </set>
       <set comment="band 5">
        <r>  0.0000  0.0000  0.0002  0.0000  0.0000  0.0000  0.0000  0.0000  0.0000 </r>
        <r>  0.0000  0.0000  0.0000  0.0000  0.0892  0.4005  0.0174  0.4392  0.0227 </r>
       </set>
       <set comment="band 6">
        <r>  0.0000  0.0001  0.0000  0.0000  0.0000  0.0000  0.0000  0.0000  0.0000 </r>
        <r>  0.0000  0.0000  0.0000  0.0000  0.5796  0.0616  0.1129  0.0676  0.1472 </r>
       </set>
       <set comment="band 7">
        <r>  0.0537  0.0295  0.0000  0.2359  0.0000  0.0000  0.0000  0.0000  0.0000 </r>
        <r>  0.1067  0.0047  0.0000  0.0377  0.0508  0.0000  0.0429  0.0000  0.0778 </r>
       </set>
       <set comment="band 8">
        <r>  0.0000  0.3019  0.1536  0.0377  0.0000  0.0000  0.0000  0.0000  0.0000 </r>
        <r>  0.0000  0.0353  0.0180  0.0044  0.0027  0.0189  0.0487  0.0180  0.0302 </r>
       </set>
       <set comment="band 9">
        <r>  0.0000  0.1365  0.3397  0.0171  0.0000  0.0000  0.0000  0.0000  0.0000 </r>
        <r>  0.0000  0.0160  0.0397  0.0020  0.0012  0.0418  0.0220  0.0397  0.0136 </r>
       </set>
       <set comment="band 10">
        <r>  0.1415  0.0083  0.0000  0.0663  0.0000  0.0000  0.0000  0.0000  0.0000 </r>
        <r>  0.2618  0.0060  0.0000  0.0477  0.0006  0.0000  0.0005  0.0000  0.0009 </r>
       </set>
       <set comment="band 11">
        <r>  0.0237  0.0235  0.0000  0.1881  0.0000  0.0000  0.0000  0.0000  0.0000 </r>
        <r>  0.0598  0.0123  0.0000  0.0985  0.0055  0.0000  0.0047  0.0000  0.0084 </r>
       </set>
       <set comment="band 12">
        <r>  0.0000  0.0168  0.0135  0.0021  0.0000  0.0000  0.0000  0.0000  0.0000 </r>
        <r>  0.0000  0.1508  0.1213  0.0189  0.0040  0.0072  0.0063  0.0006  0.0005 </r>
       </set>
       <set comment="band 13">
        <r>  0.0000  0.0120  0.0189  0.0015  0.0000  0.0000  0.0000  0.0000  0.0000 </r>
        <r>  0.0000  0.1078  0.1697  0.0135  0.0029  0.0100  0.0045  0.0008  0.0003 </r>
       </set>
       <set comment="band 14">
        <r>  0.0000  0.0006  0.0066  0.0001  0.0000  0.0000  0.0000  0.0000  0.0000 </r>
        <r>  0.0000  0.0022  0.0243  0.0003  0.0048  0.0574  0.0035  0.0473  0.0023 </r>
       </set>
       <set comment="band 15">
        <r>  0.0000  0.0059  0.0007  0.0007  0.0000  0.0000  0.0000  0.0000  0.0000 </r>
        <r>  0.0000  0.0216  0.0025  0.0027  0.0478  0.0058  0.0346  0.0048  0.0224 </r>
       </set>
       <set comment="band 16">
        <r>  0.0104  0.0000  0.0000  0.0003  0.0000  0.0000  0.0000  0.0000  0.0000 </r>
        <r>  0.1008  0.0033  0.0000  0.0262  0.0106  0.0000  0.0090  0.0000  0.0163 </r>
       </set>
      </set>
      <set comment="kpoint 388">
       <set comment="band 1">
        <r>  0.5861  0.0005  0.0007  0.0002  0.0000  0.0000  0.0000  0.0000  0.0000 </r>
        <r>  0.0571  0.0049  0.0073  0.0024  0.0009  0.0026  0.0000  0.0053  0.0070 </r>
       </set>
       <set comment="band 2">
        <r>  0.0003  0.0221  0.0332  0.0111  0.0000  0.0000  0.0000  0.0000  0.0000 </r>
        <r>  0.0262  0.0001  0.0001  0.0000  0.0596  0.1788  0.0090  0.2494  0.2874 </r>
       </set>
       <set comment="band 3">
        <r>  0.0000  0.0273  0.0094  0.0045  0.0000  0.0000  0.0000  0.0000  0.0000 </r>
        <r>  0.0000  0.0021  0.0008  0.0003  0.0376  0.0632  0.3877  0.1264  0.2812 </r>
       </set>
       <set comment="band 4">
        <r>  0.0000  0.0002  0.0112  0.0298  0.0000  0.0000  0.0000  0.0000  0.0000 </r>
        <r>  0.0000  0.0000  0.0008  0.0024  0.2113  0.0861  0.2843  0.1723  0.1419 </r>
       </set>
       <set comment="band 5">
        <r>  0.0012  0.0000  0.0000  0.0000  0.0000  0.0000  0.0000  0.0000  0.0000 </r>
        <r>  0.0014  0.0000  0.0001  0.0000  0.1409  0.4228  0.0494  0.2533  0.0910 </r>
       </set>
       <set comment="band 6">
        <r>  0.0000  0.0000  0.0000  0.0000  0.0000  0.0000  0.0000  0.0000  0.0000 </r>
        <r>  0.0000  0.0000  0.0000  0.0000  0.4867  0.1622  0.1825  0.0811  0.0608 </r>
       </set>
       <set comment="band 7">
        <r>  0.0701  0.0850  0.1274  0.0425  0.0000  0.0000  0.0000  0.0000  0.0000 </r>
        <r>  0.1519  0.0048  0.0071  0.0024  0.0147  0.0440  0.0021  0.0632  0.0740 </r>
       </set>
       <set comment="band 8">
        <r>  0.0000  0.1254  0.1745  0.1412  0.0000  0.0000  0.0000  0.0000  0.0000 </r>
        <r>  0.0000  0.0242  0.0011  0.0599  0.0176  0.0056  0.0478  0.0111  0.0150 </r>
       </set>
       <set comment="band 9">
        <r>  0.0000  0.1686  0.0461  0.2264  0.0000  0.0000  0.0000  0.0000  0.0000 </r>
        <r>  0.0000  0.0325  0.0415  0.0111  0.0094  0.0106  0.0250  0.0212  0.0308 </r>
       </set>
       <set comment="band 10">
        <r>  0.1039  0.0606  0.0909  0.0303  0.0000  0.0000  0.0000  0.0000  0.0000 </r>
        <r>  0.1427  0.0187  0.0281  0.0094  0.0031  0.0094  0.0011  0.0052  0.0012 </r>
       </set>
       <set comment="band 11">
        <r>  0.0030  0.0090  0.0135  0.0045  0.0000  0.0000  0.0000  0.0000  0.0000 </r>
        <r>  0.1571  0.0487  0.0730  0.0243  0.0020  0.0060  0.0005  0.0061  0.0058 </r>
       </set>
       <set comment="band 12">
        <r>  0.0000  0.0114  0.0179  0.0824  0.0000  0.0000  0.0000  0.0000  0.0000 </r>
        <r>  0.0000  0.0274  0.0805  0.1612  0.0038  0.0017  0.0061  0.0035  0.0034 </r>
       </set>
       <set comment="band 13">
        <r>  0.0000  0.0631  0.0379  0.0107  0.0000  0.0000  0.0000  0.0000  0.0000 </r>
        <r>  0.0000  0.1520  0.0541  0.0630  0.0013  0.0014  0.0078  0.0027  0.0054 </r>
       </set>
       <set comment="band 14">
        <r>  0.0298  0.0270  0.0406  0.0135  0.0000  0.0000  0.0000  0.0000  0.0000 </r>
        <r>  0.0192  0.0000  0.0000  0.0000  0.0101  0.0302  0.0028  0.0270  0.0221 </r>
       </set>
       <set comment="band 15">
        <r>  0.0000  0.0000  0.0000  0.0000  0.0000  0.0000  0.0000  0.0000  0.0000 </r>
        <r>  0.0000  0.0000  0.0000  0.0000  0.0486  0.0162  0.0182  0.0081  0.0061 </r>
       </set>
       <set comment="band 16">
        <r>  0.0056  0.0044  0.0066  0.0022  0.0000  0.0000  0.0000  0.0000  0.0000 </r>
        <r>  0.1725  0.0579  0.0873  0.0291  0.0007  0.0020  0.0000  0.0035  0.0047 </r>
       </set>
      </set>
      <set comment="kpoint 389">
       <set comment="band 1">
        <r>  0.6300  0.0001  0.0000  0.0003  0.0000  0.0000  0.0000  0.0000  0.0000 </r>
        <r>  0.0148  0.0064  0.0078  0.0129  0.0059  0.0040  0.0204  0.0080  0.0007 </r>
       </set>
       <set comment="band 2">
        <r>  0.0001  0.0165  0.0053  0.0329  0.0000  0.0000  0.0000  0.0000  0.0000 </r>
        <r>  0.0128  0.0000  0.0032  0.0001  0.4920  0.0630  0.0854  0.1261  0.0615 </r>
       </set>
       <set comment="band 3">
        <r>  0.0000  0.0234  0.0000  0.0117  0.0000  0.0000  0.0000  0.0000  0.0000 </r>
        <r>  0.0000  0.0022  0.0000  0.0011  0.0907  0.0616  0.0000  0.0308  0.7259 </r>
       </set>
       <set comment="band 4">
        <r>  0.0001  0.0020  0.0144  0.0040  0.0000  0.0000  0.0000  0.0000  0.0000 </r>
        <r>  0.0105  0.0002  0.0006  0.0003  0.0665  0.1168  0.4778  0.2336  0.0083 </r>
       </set>
       <set comment="band 5">
        <r>  0.0000  0.0001  0.0000  0.0001  0.0000  0.0000  0.0000  0.0000  0.0000 </r>
        <r>  0.0000  0.0000  0.0000  0.0000  0.0113  0.5810  0.0000  0.2905  0.0907 </r>
       </set>
       <set comment="band 6">
        <r>  0.0125  0.0029  0.0053  0.0058  0.0000  0.0000  0.0000  0.0000  0.0000 </r>
        <r>  0.0157  0.0007  0.0003  0.0014  0.2191  0.1241  0.2848  0.2483  0.0274 </r>
       </set>
       <set comment="band 7">
        <r>  0.0165  0.0389  0.1244  0.0778  0.0000  0.0000  0.0000  0.0000  0.0000 </r>
        <r>  0.1886  0.0020  0.0196  0.0039  0.0285  0.0078  0.0940  0.0156  0.0036 </r>
       </set>
       <set comment="band 8">
        <r>  0.0069  0.0475  0.2056  0.0950  0.0000  0.0000  0.0000  0.0000  0.0000 </r>
        <r>  0.0324  0.0099  0.0558  0.0198  0.0517  0.0099  0.0128  0.0197  0.0065 </r>
       </set>
       <set comment="band 9">
        <r>  0.0000  0.2908  0.0000  0.1454  0.0000  0.0000  0.0000  0.0000  0.0000 </r>
        <r>  0.0000  0.0639  0.0000  0.0320  0.0073  0.0086  0.0000  0.0043  0.0581 </r>
       </set>
       <set comment="band 10">
        <r>  0.0409  0.0222  0.0019  0.0445  0.0000  0.0000  0.0000  0.0000  0.0000 </r>
        <r>  0.1566  0.0261  0.0002  0.0521  0.0331  0.0008  0.0031  0.0017  0.0041 </r>
       </set>
       <set comment="band 11">
        <r>  0.0087  0.0206  0.1653  0.0412  0.0000  0.0000  0.0000  0.0000  0.0000 </r>
        <r>  0.1396  0.0141  0.0045  0.0282  0.0016  0.0024  0.0237  0.0047  0.0002 </r>
       </set>
       <set comment="band 12">
        <r>  0.0344  0.0257  0.0226  0.0514  0.0000  0.0000  0.0000  0.0000  0.0000 </r>
        <r>  0.0156  0.0066  0.0969  0.0132  0.0118  0.0067  0.0209  0.0134  0.0015 </r>
       </set>
       <set comment="band 13">
        <r>  0.0000  0.0633  0.0000  0.0317  0.0000  0.0000  0.0000  0.0000  0.0000 </r>
        <r>  0.0000  0.1342  0.0000  0.0671  0.0023  0.0121  0.0000  0.0060  0.0181 </r>
       </set>
       <set comment="band 14">
        <r>  0.0134  0.0444  0.0769  0.0888  0.0000  0.0000  0.0000  0.0000  0.0000 </r>
        <r>  0.0096  0.0105  0.1361  0.0211  0.0089  0.0068  0.0101  0.0135  0.0011 </r>
       </set>
       <set comment="band 15">
        <r>  0.0000  0.0078  0.0000  0.0039  0.0000  0.0000  0.0000  0.0000  0.0000 </r>
        <r>  0.0000  0.0556  0.0000  0.0278  0.0050  0.0107  0.0000  0.0054  0.0398 </r>
       </set>
       <set comment="band 16">
        <r>  0.0453  0.0068  0.0035  0.0134  0.0000  0.0000  0.0000  0.0000  0.0000 </r>
        <r>  0.0033  0.0356  0.0473  0.0713  0.0115  0.0053  0.0234  0.0108  0.0015 </r>
       </set>
      </set>
      <set comment="kpoint 390">
       <set comment="band 1">
        <r>  0.5861  0.0005  0.0000  0.0009  0.0000  0.0000  0.0000  0.0000  0.0000 </r>
        <r>  0.0571  0.0049  0.0000  0.0097  0.0035  0.0000  0.0118  0.0000  0.0004 </r>
       </set>
       <set comment="band 2">
        <r>  0.0003  0.0221  0.0000  0.0443  0.0000  0.0000  0.0000  0.0000  0.0000 </r>
        <r>  0.0262  0.0001  0.0000  0.0002  0.2384  0.0000  0.5160  0.0000  0.0298 </r>
       </set>
       <set comment="band 3">
        <r>  0.0000  0.0000  0.0412  0.0000  0.0000  0.0000  0.0000  0.0000  0.0000 </r>
        <r>  0.0000  0.0000  0.0032  0.0000  0.0000  0.2986  0.0000  0.5973  0.0000 </r>
       </set>
       <set comment="band 4">
        <r>  0.0000  0.0275  0.0000  0.0137  0.0000  0.0000  0.0000  0.0000  0.0000 </r>
        <r>  0.0000  0.0022  0.0000  0.0011  0.0995  0.0000  0.0000  0.0000  0.7964 </r>
       </set>
       <set comment="band 5">
        <r>  0.0012  0.0000  0.0000  0.0000  0.0000  0.0000  0.0000  0.0000  0.0000 </r>
        <r>  0.0014  0.0000  0.0000  0.0001  0.5638  0.0000  0.3232  0.0000  0.0705 </r>
       </set>
       <set comment="band 6">
        <r>  0.0000  0.0000  0.0000  0.0000  0.0000  0.0000  0.0000  0.0000  0.0000 </r>
        <r>  0.0000  0.0000  0.0000  0.0000  0.0000  0.6490  0.0000  0.3245  0.0000 </r>
       </set>
       <set comment="band 7">
        <r>  0.0701  0.0850  0.0000  0.1699  0.0000  0.0000  0.0000  0.0000  0.0000 </r>
        <r>  0.1519  0.0048  0.0000  0.0095  0.0586  0.0000  0.1320  0.0000  0.0073 </r>
       </set>
       <set comment="band 8">
        <r>  0.0000  0.2941  0.0000  0.1470  0.0000  0.0000  0.0000  0.0000  0.0000 </r>
        <r>  0.0000  0.0567  0.0000  0.0284  0.0108  0.0000  0.0000  0.0000  0.0863 </r>
       </set>
       <set comment="band 9">
        <r>  0.0000  0.0000  0.4411  0.0000  0.0000  0.0000  0.0000  0.0000  0.0000 </r>
        <r>  0.0000  0.0000  0.0851  0.0000  0.0000  0.0324  0.0000  0.0647  0.0000 </r>
       </set>
       <set comment="band 10">
        <r>  0.1039  0.0606  0.0000  0.1212  0.0000  0.0000  0.0000  0.0000  0.0000 </r>
        <r>  0.1427  0.0187  0.0000  0.0374  0.0126  0.0000  0.0060  0.0000  0.0016 </r>
       </set>
       <set comment="band 11">
        <r>  0.0030  0.0090  0.0000  0.0180  0.0000  0.0000  0.0000  0.0000  0.0000 </r>
        <r>  0.1571  0.0487  0.0000  0.0974  0.0079  0.0000  0.0114  0.0000  0.0010 </r>
       </set>
       <set comment="band 12">
        <r>  0.0000  0.0744  0.0000  0.0372  0.0000  0.0000  0.0000  0.0000  0.0000 </r>
        <r>  0.0000  0.1794  0.0000  0.0897  0.0021  0.0000  0.0000  0.0000  0.0165 </r>
       </set>
       <set comment="band 13">
        <r>  0.0000  0.0000  0.1116  0.0000  0.0000  0.0000  0.0000  0.0000  0.0000 </r>
        <r>  0.0000  0.0000  0.2691  0.0000  0.0000  0.0062  0.0000  0.0124  0.0000 </r>
       </set>
       <set comment="band 14">
        <r>  0.0298  0.0270  0.0000  0.0541  0.0000  0.0000  0.0000  0.0000  0.0000 </r>
        <r>  0.0192  0.0000  0.0000  0.0001  0.0403  0.0000  0.0469  0.0000  0.0050 </r>
       </set>
       <set comment="band 15">
        <r>  0.0000  0.0000  0.0000  0.0000  0.0000  0.0000  0.0000  0.0000  0.0000 </r>
        <r>  0.0000  0.0000  0.0000  0.0000  0.0000  0.0648  0.0000  0.0324  0.0000 </r>
       </set>
       <set comment="band 16">
        <r>  0.0056  0.0044  0.0000  0.0088  0.0000  0.0000  0.0000  0.0000  0.0000 </r>
        <r>  0.1725  0.0582  0.0000  0.1172  0.0024  0.0000  0.0081  0.0000  0.0004 </r>
       </set>
      </set>
      <set comment="kpoint 391">
       <set comment="band 1">
        <r>  0.5757  0.0001  0.0007  0.0002  0.0000  0.0000  0.0000  0.0000  0.0000 </r>
        <r>  0.0680  0.0012  0.0070  0.0023  0.0009  0.0026  0.0029  0.0051  0.0001 </r>
       </set>
       <set comment="band 2">
        <r>  0.0003  0.0066  0.0397  0.0132  0.0000  0.0000  0.0000  0.0000  0.0000 </r>
        <r>  0.0203  0.0004  0.0022  0.0007  0.0598  0.1791  0.2017  0.3583  0.0075 </r>
       </set>
       <set comment="band 3">
        <r>  0.0000  0.0164  0.0019  0.0274  0.0000  0.0000  0.0000  0.0000  0.0000 </r>
        <r>  0.0000  0.0008  0.0001  0.0013  0.2136  0.0668  0.0390  0.0081  0.5596 </r>
       </set>
       <set comment="band 4">
        <r>  0.0000  0.0242  0.0134  0.0081  0.0000  0.0000  0.0000  0.0000  0.0000 </r>
        <r>  0.0000  0.0011  0.0006  0.0004  0.1365  0.0574  0.2788  0.1943  0.2201 </r>
       </set>
       <set comment="band 5">
        <r>  0.0000  0.0001  0.0000  0.0001  0.0000  0.0000  0.0000  0.0000  0.0000 </r>
        <r>  0.0000  0.0000  0.0000  0.0000  0.0056  0.5809  0.0096  0.3135  0.0594 </r>
       </set>
       <set comment="band 6">
        <r>  0.0000  0.0001  0.0001  0.0001  0.0000  0.0000  0.0000  0.0000  0.0000 </r>
        <r>  0.0000  0.0000  0.0000  0.0000  0.5082  0.0363  0.3705  0.0038  0.0502 </r>
       </set>
       <set comment="band 7">
        <r>  0.0537  0.0295  0.1769  0.0590  0.0000  0.0000  0.0000  0.0000  0.0000 </r>
        <r>  0.1067  0.0047  0.0283  0.0094  0.0127  0.0381  0.0428  0.0762  0.0016 </r>
       </set>
       <set comment="band 8">
        <r>  0.0000  0.1848  0.0184  0.2901  0.0000  0.0000  0.0000  0.0000  0.0000 </r>
        <r>  0.0000  0.0216  0.0021  0.0339  0.0268  0.0100  0.0048  0.0020  0.0748 </r>
       </set>
       <set comment="band 9">
        <r>  0.0000  0.2537  0.1461  0.0935  0.0000  0.0000  0.0000  0.0000  0.0000 </r>
        <r>  0.0000  0.0297  0.0171  0.0109  0.0197  0.0081  0.0384  0.0253  0.0268 </r>
       </set>
       <set comment="band 10">
        <r>  0.1415  0.0083  0.0497  0.0166  0.0000  0.0000  0.0000  0.0000  0.0000 </r>
        <r>  0.2618  0.0060  0.0358  0.0119  0.0001  0.0004  0.0005  0.0009  0.0000 </r>
       </set>
       <set comment="band 11">
        <r>  0.0237  0.0235  0.1411  0.0470  0.0000  0.0000  0.0000  0.0000  0.0000 </r>
        <r>  0.0598  0.0123  0.0739  0.0246  0.0014  0.0041  0.0047  0.0083  0.0002 </r>
       </set>
       <set comment="band 12">
        <r>  0.0000  0.0152  0.0098  0.0074  0.0000  0.0000  0.0000  0.0000  0.0000 </r>
        <r>  0.0000  0.1361  0.0883  0.0666  0.0112  0.0006  0.0009  0.0022  0.0036 </r>
       </set>
       <set comment="band 13">
        <r>  0.0000  0.0137  0.0010  0.0178  0.0000  0.0000  0.0000  0.0000  0.0000 </r>
        <r>  0.0000  0.1226  0.0087  0.1597  0.0034  0.0089  0.0001  0.0034  0.0027 </r>
       </set>
       <set comment="band 14">
        <r>  0.0000  0.0063  0.0010  0.0000  0.0000  0.0000  0.0000  0.0000  0.0000 </r>
        <r>  0.0000  0.0232  0.0035  0.0000  0.0200  0.0329  0.0155  0.0183  0.0286 </r>
       </set>
       <set comment="band 15">
        <r>  0.0000  0.0002  0.0015  0.0057  0.0000  0.0000  0.0000  0.0000  0.0000 </r>
        <r>  0.0000  0.0006  0.0054  0.0208  0.0406  0.0224  0.0235  0.0158  0.0130 </r>
       </set>
       <set comment="band 16">
        <r>  0.0104  0.0000  0.0003  0.0001  0.0000  0.0000  0.0000  0.0000  0.0000 </r>
        <r>  0.1008  0.0033  0.0196  0.0065  0.0027  0.0080  0.0090  0.0160  0.0003 </r>
       </set>
      </set>
     </set>
    </set>
   </array>
  </projected>
 </calculation>
 <structure name="finalpos" >
  <crystal>
   <varray name="basis" >
    <v>       3.34106610       0.00000000       1.92896504 </v>
    <v>       1.11368903       3.14998758       1.92896504 </v>
    <v>      -0.00000000      -0.00000000       3.85793108 </v>
   </varray>
   <i name="volume">     40.60208860 </i>
   <varray name="rec_basis" >
    <v>       0.29930566      -0.10582055       0.00000000 </v>
    <v>      -0.00000000       0.31746157       0.00000000 </v>
    <v>      -0.14965279      -0.10582048       0.25920629 </v>
   </varray>
  </crystal>
  <varray name="positions" >
   <v>       0.25000000       0.25000000       0.25000000 </v>
   <v>       0.00000000       0.00000000       0.00000000 </v>
  </varray>
 </structure>
</modeling>
