<?xml version="1.0" encoding="ISO-8859-1"?>
<modeling>
 <generator>
  <i name="program" type="string">vasp </i>
  <i name="version" type="string">5.4.1  </i>
  <i name="subversion" type="string">24Jun15 (build Jul  8 2016 11:48:28) complex                          parallel </i>
  <i name="platform" type="string">GCC5.3.0_CrayMPICH7.4.0_FFTW3.3.4.8 </i>
  <i name="date" type="string">2016 12 21 </i>
  <i name="time" type="string">20:01:39 </i>
 </generator>
 <incar>
  <i type="int" name="ISTART">     1</i>
  <i type="string" name="PREC">accurate</i>
  <i type="string" name="ALGO"> Normal</i>
  <i type="int" name="ISPIN">     1</i>
  <i type="int" name="ICHARG">    11</i>
  <i type="int" name="NELM">   100</i>
  <i type="int" name="IBRION">    -1</i>
  <i name="EDIFF">      0.00010000</i>
  <i type="int" name="NSW">     0</i>
  <i type="int" name="ISIF">     3</i>
  <i type="int" name="ISYM">     0</i>
  <i name="ENCUT">    520.00000000</i>
  <i type="int" name="NBANDS">    20</i>
  <i type="string" name="LREAL"> Auto</i>
  <i type="int" name="ISMEAR">     0</i>
  <i name="SIGMA">      0.00100000</i>
  <i type="logical" name="LWAVE"> F  </i>
  <i type="logical" name="LCHARG"> F  </i>
  <i type="logical" name="LVHAR"> T  </i>
  <i type="logical" name="LORBIT"> F  </i>
  <i type="logical" name="LAECHG"> T  </i>
  <v type="int" name="KPOINT_BSE">    -1     0     0     0</v>
  <i type="int" name="NELM">   100</i>
 </incar>
 <kpoints>
  <varray name="kpointlist" >
   <v>       0.00000000       0.00000000       0.00000000 </v>
   <v>       0.02500000       0.00000000       0.02500000 </v>
   <v>       0.05000000       0.00000000       0.05000000 </v>
   <v>       0.07500000       0.00000000       0.07500000 </v>
   <v>       0.10000000       0.00000000       0.10000000 </v>
   <v>       0.12500000       0.00000000       0.12500000 </v>
   <v>       0.15000000       0.00000000       0.15000000 </v>
   <v>       0.17500000       0.00000000       0.17500000 </v>
   <v>       0.20000000       0.00000000       0.20000000 </v>
   <v>       0.22500000       0.00000000       0.22500000 </v>
   <v>       0.25000000       0.00000000       0.25000000 </v>
   <v>       0.27500000       0.00000000       0.27500000 </v>
   <v>       0.30000000       0.00000000       0.30000000 </v>
   <v>       0.32500000       0.00000000       0.32500000 </v>
   <v>       0.35000000       0.00000000       0.35000000 </v>
   <v>       0.37500000       0.00000000       0.37500000 </v>
   <v>       0.40000000       0.00000000       0.40000000 </v>
   <v>       0.42500000       0.00000000       0.42500000 </v>
   <v>       0.45000000       0.00000000       0.45000000 </v>
   <v>       0.47500000       0.00000000       0.47500000 </v>
   <v>       0.50000000       0.00000000       0.50000000 </v>
   <v>       0.50000000       0.00000000       0.50000000 </v>
   <v>       0.50000000       0.02500000       0.52500000 </v>
   <v>       0.50000000       0.05000000       0.55000000 </v>
   <v>       0.50000000       0.07500000       0.57500000 </v>
   <v>       0.50000000       0.10000000       0.60000000 </v>
   <v>       0.50000000       0.12500000       0.62500000 </v>
   <v>       0.50000000       0.15000000       0.65000000 </v>
   <v>       0.50000000       0.17500000       0.67500000 </v>
   <v>       0.50000000       0.20000000       0.70000000 </v>
   <v>       0.50000000       0.22500000       0.72500000 </v>
   <v>       0.50000000       0.25000000       0.75000000 </v>
   <v>       0.50000000       0.25000000       0.75000000 </v>
   <v>       0.48214286       0.26785714       0.75000000 </v>
   <v>       0.46428571       0.28571429       0.75000000 </v>
   <v>       0.44642857       0.30357143       0.75000000 </v>
   <v>       0.42857143       0.32142857       0.75000000 </v>
   <v>       0.41071429       0.33928571       0.75000000 </v>
   <v>       0.39285714       0.35714286       0.75000000 </v>
   <v>       0.37500000       0.37500000       0.75000000 </v>
   <v>       0.37500000       0.37500000       0.75000000 </v>
   <v>       0.35714286       0.35714286       0.71428571 </v>
   <v>       0.33928571       0.33928571       0.67857143 </v>
   <v>       0.32142857       0.32142857       0.64285714 </v>
   <v>       0.30357143       0.30357143       0.60714286 </v>
   <v>       0.28571429       0.28571429       0.57142857 </v>
   <v>       0.26785714       0.26785714       0.53571429 </v>
   <v>       0.25000000       0.25000000       0.50000000 </v>
   <v>       0.23214286       0.23214286       0.46428571 </v>
   <v>       0.21428571       0.21428571       0.42857143 </v>
   <v>       0.19642857       0.19642857       0.39285714 </v>
   <v>       0.17857143       0.17857143       0.35714286 </v>
   <v>       0.16071429       0.16071429       0.32142857 </v>
   <v>       0.14285714       0.14285714       0.28571429 </v>
   <v>       0.12500000       0.12500000       0.25000000 </v>
   <v>       0.10714286       0.10714286       0.21428571 </v>
   <v>       0.08928571       0.08928571       0.17857143 </v>
   <v>       0.07142857       0.07142857       0.14285714 </v>
   <v>       0.05357143       0.05357143       0.10714286 </v>
   <v>       0.03571429       0.03571429       0.07142857 </v>
   <v>       0.01785714       0.01785714       0.03571429 </v>
   <v>       0.00000000       0.00000000       0.00000000 </v>
   <v>       0.00000000       0.00000000       0.00000000 </v>
   <v>       0.02941176       0.02941176       0.02941176 </v>
   <v>       0.05882353       0.05882353       0.05882353 </v>
   <v>       0.08823529       0.08823529       0.08823529 </v>
   <v>       0.11764706       0.11764706       0.11764706 </v>
   <v>       0.14705882       0.14705882       0.14705882 </v>
   <v>       0.17647059       0.17647059       0.17647059 </v>
   <v>       0.20588235       0.20588235       0.20588235 </v>
   <v>       0.23529412       0.23529412       0.23529412 </v>
   <v>       0.26470588       0.26470588       0.26470588 </v>
   <v>       0.29411765       0.29411765       0.29411765 </v>
   <v>       0.32352941       0.32352941       0.32352941 </v>
   <v>       0.35294118       0.35294118       0.35294118 </v>
   <v>       0.38235294       0.38235294       0.38235294 </v>
   <v>       0.41176471       0.41176471       0.41176471 </v>
   <v>       0.44117647       0.44117647       0.44117647 </v>
   <v>       0.47058824       0.47058824       0.47058824 </v>
   <v>       0.50000000       0.50000000       0.50000000 </v>
   <v>       0.50000000       0.50000000       0.50000000 </v>
   <v>       0.51041667       0.47916667       0.51041667 </v>
   <v>       0.52083333       0.45833333       0.52083333 </v>
   <v>       0.53125000       0.43750000       0.53125000 </v>
   <v>       0.54166667       0.41666667       0.54166667 </v>
   <v>       0.55208333       0.39583333       0.55208333 </v>
   <v>       0.56250000       0.37500000       0.56250000 </v>
   <v>       0.57291667       0.35416667       0.57291667 </v>
   <v>       0.58333333       0.33333333       0.58333333 </v>
   <v>       0.59375000       0.31250000       0.59375000 </v>
   <v>       0.60416667       0.29166667       0.60416667 </v>
   <v>       0.61458333       0.27083333       0.61458333 </v>
   <v>       0.62500000       0.25000000       0.62500000 </v>
   <v>       0.62500000       0.25000000       0.62500000 </v>
   <v>       0.60714286       0.25000000       0.64285714 </v>
   <v>       0.58928571       0.25000000       0.66071429 </v>
   <v>       0.57142857       0.25000000       0.67857143 </v>
   <v>       0.55357143       0.25000000       0.69642857 </v>
   <v>       0.53571429       0.25000000       0.71428571 </v>
   <v>       0.51785714       0.25000000       0.73214286 </v>
   <v>       0.50000000       0.25000000       0.75000000 </v>
   <v>       0.50000000       0.25000000       0.75000000 </v>
   <v>       0.50000000       0.26785714       0.73214286 </v>
   <v>       0.50000000       0.28571429       0.71428571 </v>
   <v>       0.50000000       0.30357143       0.69642857 </v>
   <v>       0.50000000       0.32142857       0.67857143 </v>
   <v>       0.50000000       0.33928571       0.66071429 </v>
   <v>       0.50000000       0.35714286       0.64285714 </v>
   <v>       0.50000000       0.37500000       0.62500000 </v>
   <v>       0.50000000       0.39285714       0.60714286 </v>
   <v>       0.50000000       0.41071429       0.58928571 </v>
   <v>       0.50000000       0.42857143       0.57142857 </v>
   <v>       0.50000000       0.44642857       0.55357143 </v>
   <v>       0.50000000       0.46428571       0.53571429 </v>
   <v>       0.50000000       0.48214286       0.51785714 </v>
   <v>       0.50000000       0.50000000       0.50000000 </v>
   <v>       0.50000000       0.50000000       0.50000000 </v>
   <v>       0.48958333       0.48958333       0.52083333 </v>
   <v>       0.47916667       0.47916667       0.54166667 </v>
   <v>       0.46875000       0.46875000       0.56250000 </v>
   <v>       0.45833333       0.45833333       0.58333333 </v>
   <v>       0.44791667       0.44791667       0.60416667 </v>
   <v>       0.43750000       0.43750000       0.62500000 </v>
   <v>       0.42708333       0.42708333       0.64583333 </v>
   <v>       0.41666667       0.41666667       0.66666667 </v>
   <v>       0.40625000       0.40625000       0.68750000 </v>
   <v>       0.39583333       0.39583333       0.70833333 </v>
   <v>       0.38541667       0.38541667       0.72916667 </v>
   <v>       0.37500000       0.37500000       0.75000000 </v>
   <v>       0.62500000       0.25000000       0.62500000 </v>
   <v>       0.60714286       0.21428571       0.60714286 </v>
   <v>       0.58928571       0.17857143       0.58928571 </v>
   <v>       0.57142857       0.14285714       0.57142857 </v>
   <v>       0.55357143       0.10714286       0.55357143 </v>
   <v>       0.53571429       0.07142857       0.53571429 </v>
   <v>       0.51785714       0.03571429       0.51785714 </v>
   <v>       0.50000000       0.00000000       0.50000000 </v>
  </varray>
  <varray name="weights" >
   <v>       0.00729927 </v>
   <v>       0.00729927 </v>
   <v>       0.00729927 </v>
   <v>       0.00729927 </v>
   <v>       0.00729927 </v>
   <v>       0.00729927 </v>
   <v>       0.00729927 </v>
   <v>       0.00729927 </v>
   <v>       0.00729927 </v>
   <v>       0.00729927 </v>
   <v>       0.00729927 </v>
   <v>       0.00729927 </v>
   <v>       0.00729927 </v>
   <v>       0.00729927 </v>
   <v>       0.00729927 </v>
   <v>       0.00729927 </v>
   <v>       0.00729927 </v>
   <v>       0.00729927 </v>
   <v>       0.00729927 </v>
   <v>       0.00729927 </v>
   <v>       0.00729927 </v>
   <v>       0.00729927 </v>
   <v>       0.00729927 </v>
   <v>       0.00729927 </v>
   <v>       0.00729927 </v>
   <v>       0.00729927 </v>
   <v>       0.00729927 </v>
   <v>       0.00729927 </v>
   <v>       0.00729927 </v>
   <v>       0.00729927 </v>
   <v>       0.00729927 </v>
   <v>       0.00729927 </v>
   <v>       0.00729927 </v>
   <v>       0.00729927 </v>
   <v>       0.00729927 </v>
   <v>       0.00729927 </v>
   <v>       0.00729927 </v>
   <v>       0.00729927 </v>
   <v>       0.00729927 </v>
   <v>       0.00729927 </v>
   <v>       0.00729927 </v>
   <v>       0.00729927 </v>
   <v>       0.00729927 </v>
   <v>       0.00729927 </v>
   <v>       0.00729927 </v>
   <v>       0.00729927 </v>
   <v>       0.00729927 </v>
   <v>       0.00729927 </v>
   <v>       0.00729927 </v>
   <v>       0.00729927 </v>
   <v>       0.00729927 </v>
   <v>       0.00729927 </v>
   <v>       0.00729927 </v>
   <v>       0.00729927 </v>
   <v>       0.00729927 </v>
   <v>       0.00729927 </v>
   <v>       0.00729927 </v>
   <v>       0.00729927 </v>
   <v>       0.00729927 </v>
   <v>       0.00729927 </v>
   <v>       0.00729927 </v>
   <v>       0.00729927 </v>
   <v>       0.00729927 </v>
   <v>       0.00729927 </v>
   <v>       0.00729927 </v>
   <v>       0.00729927 </v>
   <v>       0.00729927 </v>
   <v>       0.00729927 </v>
   <v>       0.00729927 </v>
   <v>       0.00729927 </v>
   <v>       0.00729927 </v>
   <v>       0.00729927 </v>
   <v>       0.00729927 </v>
   <v>       0.00729927 </v>
   <v>       0.00729927 </v>
   <v>       0.00729927 </v>
   <v>       0.00729927 </v>
   <v>       0.00729927 </v>
   <v>       0.00729927 </v>
   <v>       0.00729927 </v>
   <v>       0.00729927 </v>
   <v>       0.00729927 </v>
   <v>       0.00729927 </v>
   <v>       0.00729927 </v>
   <v>       0.00729927 </v>
   <v>       0.00729927 </v>
   <v>       0.00729927 </v>
   <v>       0.00729927 </v>
   <v>       0.00729927 </v>
   <v>       0.00729927 </v>
   <v>       0.00729927 </v>
   <v>       0.00729927 </v>
   <v>       0.00729927 </v>
   <v>       0.00729927 </v>
   <v>       0.00729927 </v>
   <v>       0.00729927 </v>
   <v>       0.00729927 </v>
   <v>       0.00729927 </v>
   <v>       0.00729927 </v>
   <v>       0.00729927 </v>
   <v>       0.00729927 </v>
   <v>       0.00729927 </v>
   <v>       0.00729927 </v>
   <v>       0.00729927 </v>
   <v>       0.00729927 </v>
   <v>       0.00729927 </v>
   <v>       0.00729927 </v>
   <v>       0.00729927 </v>
   <v>       0.00729927 </v>
   <v>       0.00729927 </v>
   <v>       0.00729927 </v>
   <v>       0.00729927 </v>
   <v>       0.00729927 </v>
   <v>       0.00729927 </v>
   <v>       0.00729927 </v>
   <v>       0.00729927 </v>
   <v>       0.00729927 </v>
   <v>       0.00729927 </v>
   <v>       0.00729927 </v>
   <v>       0.00729927 </v>
   <v>       0.00729927 </v>
   <v>       0.00729927 </v>
   <v>       0.00729927 </v>
   <v>       0.00729927 </v>
   <v>       0.00729927 </v>
   <v>       0.00729927 </v>
   <v>       0.00729927 </v>
   <v>       0.00729927 </v>
   <v>       0.00729927 </v>
   <v>       0.00729927 </v>
   <v>       0.00729927 </v>
   <v>       0.00729927 </v>
   <v>       0.00729927 </v>
   <v>       0.00729927 </v>
   <v>       0.00729927 </v>
   <v>       0.00729927 </v>
   <v>       0.00729927 </v>
  </varray>
 </kpoints>
 <parameters>
  <separator name="general" >
   <i type="string" name="SYSTEM">unknown system</i>
   <i type="logical" name="LCOMPAT"> F  </i>
  </separator>
  <separator name="electronic" >
   <i type="string" name="PREC">accura</i>
   <i name="ENMAX">    520.00000000</i>
   <i name="ENAUG">    391.91400000</i>
   <i name="EDIFF">      0.00010000</i>
   <i type="int" name="IALGO">    38</i>
   <i type="int" name="IWAVPR">    10</i>
   <i type="int" name="NBANDS">    20</i>
   <i name="NELECT">     20.00000000</i>
   <i type="int" name="TURBO">     0</i>
   <i type="int" name="IRESTART">     0</i>
   <i type="int" name="NREBOOT">     0</i>
   <i type="int" name="NMIN">     0</i>
   <i name="EREF">      0.00000000</i>
   <separator name="electronic smearing" >
    <i type="int" name="ISMEAR">     0</i>
    <i name="SIGMA">      0.00100000</i>
    <i name="KSPACING">      0.50000000</i>
    <i type="logical" name="KGAMMA"> T  </i>
   </separator>
   <separator name="electronic projectors" >
    <i type="logical" name="LREAL"> T  </i>
    <v name="ROPT">     -0.00025000     -0.00025000</v>
    <i type="int" name="LMAXPAW">  -100</i>
    <i type="int" name="LMAXMIX">     2</i>
    <i type="logical" name="NLSPLINE"> F  </i>
   </separator>
   <separator name="electronic startup" >
    <i type="int" name="ISTART">     0</i>
    <i type="int" name="ICHARG">    11</i>
    <i type="int" name="INIWAV">     1</i>
   </separator>
   <separator name="electronic spin" >
    <i type="int" name="ISPIN">     1</i>
    <i type="logical" name="LNONCOLLINEAR"> F  </i>
    <v name="MAGMOM">      1.00000000      1.00000000</v>
    <i name="NUPDOWN">     -1.00000000</i>
    <i type="logical" name="LSORBIT"> F  </i>
    <v name="SAXIS">      0.00000000      0.00000000      1.00000000</v>
    <i type="logical" name="LSPIRAL"> F  </i>
    <v name="QSPIRAL">      0.00000000      0.00000000      0.00000000</v>
    <i type="logical" name="LZEROZ"> F  </i>
   </separator>
   <separator name="electronic exchange-correlation" >
    <i type="logical" name="LASPH"> F  </i>
    <i type="logical" name="LMETAGGA"> F  </i>
   </separator>
   <separator name="electronic convergence" >
    <i type="int" name="NELM">   100</i>
    <i type="int" name="NELMDL">     0</i>
    <i type="int" name="NELMIN">     2</i>
    <i name="ENINI">    520.00000000</i>
    <separator name="electronic convergence detail" >
     <i type="logical" name="LDIAG"> T  </i>
     <i type="logical" name="LSUBROT"> F  </i>
     <i name="WEIMIN">      0.00000000</i>
     <i name="EBREAK">      0.00000125</i>
     <i name="DEPER">      0.30000000</i>
     <i type="int" name="NRMM">     4</i>
     <i name="TIME">      0.40000000</i>
    </separator>
   </separator>
   <separator name="electronic mixer" >
    <i name="AMIX">      0.40000000</i>
    <i name="BMIX">      1.00000000</i>
    <i name="AMIN">      0.10000000</i>
    <i name="AMIX_MAG">      1.60000000</i>
    <i name="BMIX_MAG">      1.00000000</i>
    <separator name="electronic mixer details" >
     <i type="int" name="IMIX">     4</i>
     <i type="logical" name="MIXFIRST"> F  </i>
     <i type="int" name="MAXMIX">   -45</i>
     <i name="WC">    100.00000000</i>
     <i type="int" name="INIMIX">     1</i>
     <i type="int" name="MIXPRE">     1</i>
     <i type="int" name="MREMOVE">     5</i>
    </separator>
   </separator>
   <separator name="electronic dipolcorrection" >
    <i type="logical" name="LDIPOL"> F  </i>
    <i type="logical" name="LMONO"> F  </i>
    <i type="int" name="IDIPOL">     0</i>
    <i name="EPSILON">      1.00000000</i>
    <v name="DIPOL">   -100.00000000   -100.00000000   -100.00000000</v>
    <i name="EFIELD">      0.00000000</i>
   </separator>
  </separator>
  <separator name="grids" >
   <i type="int" name="NGX">    36</i>
   <i type="int" name="NGY">    36</i>
   <i type="int" name="NGZ">    36</i>
   <i type="int" name="NGXF">    72</i>
   <i type="int" name="NGYF">    72</i>
   <i type="int" name="NGZF">    72</i>
   <i type="logical" name="ADDGRID"> F  </i>
  </separator>
  <separator name="ionic" >
   <i type="int" name="NSW">     0</i>
   <i type="int" name="IBRION">    -1</i>
   <i type="int" name="ISIF">     3</i>
   <i name="PSTRESS">      0.00000000</i>
   <i name="EDIFFG">      0.00100000</i>
   <i type="int" name="NFREE">     0</i>
   <i name="POTIM">      0.50000000</i>
   <i name="SMASS">     -3.00000000</i>
   <i name="SCALEE">      1.00000000</i>
  </separator>
  <separator name="ionic md" >
   <i name="TEBEG">      0.00010000</i>
   <i name="TEEND">      0.00010000</i>
   <i type="int" name="NBLOCK">     1</i>
   <i type="int" name="KBLOCK">     1</i>
   <i type="int" name="NPACO">   256</i>
   <i name="APACO">     16.00000000</i>
  </separator>
  <separator name="symmetry" >
   <i type="int" name="ISYM">     0</i>
   <i name="SYMPREC">      0.00001000</i>
  </separator>
  <separator name="dos" >
   <i type="logical" name="LORBIT"> F  </i>
   <v name="RWIGS">     -1.00000000     -1.00000000</v>
   <i type="int" name="NEDOS">   301</i>
   <i name="EMIN">     10.00000000</i>
   <i name="EMAX">    -10.00000000</i>
   <i name="EFERMI">      0.00000000</i>
  </separator>
  <separator name="writing" >
   <i type="int" name="NWRITE">     2</i>
   <i type="logical" name="LWAVE"> F  </i>
   <i type="logical" name="LCHARG"> F  </i>
   <i type="logical" name="LPARD"> F  </i>
   <i type="logical" name="LVTOT"> F  </i>
   <i type="logical" name="LVHAR"> T  </i>
   <i type="logical" name="LELF"> F  </i>
   <i type="logical" name="LOPTICS"> F  </i>
   <v name="STM">      0.00000000      0.00000000      0.00000000      0.00000000      0.00000000      0.00000000      0.00000000</v>
  </separator>
  <separator name="performance" >
   <i type="int" name="NPAR">     4</i>
   <i type="int" name="NSIM">     4</i>
   <i type="int" name="NBLK">    -1</i>
   <i type="logical" name="LPLANE"> T  </i>
   <i type="logical" name="LSCALAPACK"> T  </i>
   <i type="logical" name="LSCAAWARE"> F  </i>
   <i type="logical" name="LSCALU"> F  </i>
   <i type="logical" name="LASYNC"> F  </i>
   <i type="logical" name="LORBITALREAL"> F  </i>
  </separator>
  <separator name="miscellaneous" >
   <i type="int" name="IDIOT">     3</i>
   <i type="logical" name="LMUSIC"> F  </i>
   <v name="POMASS">    127.60000000    207.20000000</v>
   <v name="DARWINR">      0.00000000      0.00000000</v>
   <v name="DARWINV">      1.00000000      1.00000000</v>
   <i type="logical" name="LCORR"> T  </i>
  </separator>
  <i type="logical" name="GGA_COMPAT"> T  </i>
  <i type="logical" name="LBERRY"> F  </i>
  <i type="int" name="ICORELEVEL">     0</i>
  <i type="logical" name="LDAU"> F  </i>
  <i type="int" name="I_CONSTRAINED_M">     0</i>
  <separator name="electronic exchange-correlation" >
   <i type="string" name="GGA">--</i>
   <i type="int" name="VOSKOWN">     0</i>
   <i type="logical" name="LHFCALC"> F  </i>
   <i type="string" name="PRECFOCK"></i>
   <i type="logical" name="LSYMGRAD"> F  </i>
   <i type="logical" name="LHFONE"> F  </i>
   <i type="logical" name="LRHFCALC"> F  </i>
   <i type="logical" name="LTHOMAS"> F  </i>
   <i type="logical" name="LMODELHF"> F  </i>
   <i name="ENCUT4O">     -1.00000000</i>
   <i type="int" name="EXXOEP">     0</i>
   <i type="int" name="FOURORBIT">     0</i>
   <i name="AEXX">      0.00000000</i>
   <i name="HFALPHA">      0.00000000</i>
   <i name="MCALPHA">      0.00000000</i>
   <i name="ALDAX">      1.00000000</i>
   <i name="AGGAX">      1.00000000</i>
   <i name="ALDAC">      1.00000000</i>
   <i name="AGGAC">      1.00000000</i>
   <i type="int" name="NKREDX">     1</i>
   <i type="int" name="NKREDY">     1</i>
   <i type="int" name="NKREDZ">     1</i>
   <i type="logical" name="SHIFTRED"> F  </i>
   <i type="logical" name="ODDONLY"> F  </i>
   <i type="logical" name="EVENONLY"> F  </i>
   <i type="int" name="LMAXFOCK">     0</i>
   <i type="int" name="NMAXFOCKAE">     0</i>
   <i type="logical" name="LFOCKAEDFT"> F  </i>
   <i name="HFSCREEN">      0.00000000</i>
   <i name="HFSCREENC">      0.00000000</i>
   <i type="int" name="NBANDSGWLOW">     0</i>
  </separator>
  <separator name="vdW DFT" >
   <i type="logical" name="LUSE_VDW"> F  </i>
   <i name="Zab_VDW">     -0.84910000</i>
   <i name="PARAM1">      0.12340000</i>
   <i name="PARAM2">      1.00000000</i>
   <i name="PARAM3">      0.00000000</i>
  </separator>
  <separator name="model GW" >
   <i type="int" name="MODEL_GW">     0</i>
   <i name="MODEL_EPS0">     21.23305057</i>
   <i name="MODEL_ALPHA">      1.00000000</i>
  </separator>
  <separator name="linear response parameters" >
   <i type="logical" name="LEPSILON"> F  </i>
   <i type="logical" name="LRPA"> F  </i>
   <i type="logical" name="LNABLA"> F  </i>
   <i type="logical" name="LVEL"> F  </i>
   <i type="int" name="KINTER">     0</i>
   <i name="CSHIFT">      0.10000000</i>
   <i name="OMEGAMAX">     -1.00000000</i>
   <i name="DEG_THRESHOLD">      0.00200000</i>
  </separator>
  <separator name="orbital magnetization" >
   <i type="logical" name="NUCIND"> F  </i>
   <v name="MAGPOS">      0.00000000      0.00000000      0.00000000</v>
   <i type="logical" name="LNICSALL"> T  </i>
   <i type="logical" name="ORBITALMAG"> F  </i>
   <i type="logical" name="LMAGBLOCH"> F  </i>
   <i type="logical" name="LCHIMAG"> F  </i>
   <i type="logical" name="LGAUGE"> T  </i>
   <i type="int" name="MAGATOM">     0</i>
   <v name="MAGDIPOL">      0.00000000      0.00000000      0.00000000</v>
   <v name="AVECCONST">      0.00000000      0.00000000      0.00000000</v>
  </separator>
  <separator name="response functions" >
   <i type="logical" name="LADDER"> F  </i>
   <i type="logical" name="LFXC"> F  </i>
   <i type="logical" name="LHARTREE"> T  </i>
   <i type="int" name="IBSE">     0</i>
   <v type="int" name="KPOINT">    -1     0     0     0</v>
   <i type="logical" name="LTCTE"> F  </i>
   <i type="logical" name="LTETE"> F  </i>
   <i type="logical" name="LTRIPLET"> F  </i>
   <i type="logical" name="LFXCEPS"> F  </i>
   <i type="logical" name="LFXHEG"> F  </i>
   <i type="int" name="NATURALO">     0</i>
   <i type="logical" name="L2ORDER"> F  </i>
   <i type="logical" name="LUSEW"> F  </i>
   <i name="ENCUTGW">     -2.00000000</i>
   <i name="ENCUTGWSOFT">     -2.00000000</i>
   <i name="ENCUTLF">     -1.00000000</i>
   <i type="int" name="LMAXMP2">    -1</i>
   <i name="SCISSOR">      0.00000000</i>
   <i type="int" name="NOMEGA">     0</i>
   <i type="int" name="NOMEGAR">     0</i>
   <i type="int" name="NBANDSGW">    -1</i>
   <i type="int" name="NBANDSO">    -1</i>
   <i type="int" name="NBANDSV">    -1</i>
   <i type="int" name="NELM">   100</i>
   <i type="int" name="NELMHF">     1</i>
   <i type="int" name="DIM">     3</i>
   <i type="int" name="ANTIRES">     0</i>
   <i name="OMEGAMAX">    -30.00000000</i>
   <i name="OMEGAMIN">    -30.00000000</i>
   <i name="OMEGATL">   -200.00000000</i>
   <i type="int" name="OMEGAGRID">     0</i>
   <i name="CSHIFT">     -0.10000000</i>
   <i type="logical" name="SELFENERGY"> F  </i>
   <i type="logical" name="LSPECTRAL"> F  </i>
   <i type="logical" name="LSPECTRALGW"> F  </i>
   <i type="logical" name="LSINGLES"> F  </i>
   <i type="logical" name="LFERMIGW"> F  </i>
   <i type="logical" name="ODDONLYGW"> F  </i>
   <i type="logical" name="EVENONLYGW"> F  </i>
   <i type="int" name="NKREDLFX">     1</i>
   <i type="int" name="NKREDLFY">     1</i>
   <i type="int" name="NKREDLFZ">     1</i>
   <i type="int" name="MAXMEM">  1800</i>
   <i type="int" name="TELESCOPE">     0</i>
   <i type="int" name="TAUPAR">     1</i>
   <i type="int" name="OMEGAPAR">    -1</i>
   <i name="LAMBDA">      1.00000000</i>
  </separator>
  <separator name="External order field" >
   <i name="OFIELD_KAPPA">      0.00000000</i>
   <v name="OFIELD_K">      0.00000000      0.00000000      0.00000000</v>
   <i name="OFIELD_Q6_NEAR">      0.00000000</i>
   <i name="OFIELD_Q6_FAR">      0.00000000</i>
   <i name="OFIELD_A">      0.00000000</i>
  </separator>
 </parameters>
 <atominfo>
  <atoms>       2 </atoms>
  <types>       2 </types>
  <array name="atoms" >
   <dimension dim="1">ion</dimension>
   <field type="string">element</field>
   <field type="int">atomtype</field>
   <set>
    <rc><c>Te</c><c>   1</c></rc>
    <rc><c>Pb</c><c>   2</c></rc>
   </set>
  </array>
  <array name="atomtypes" >
   <dimension dim="1">type</dimension>
   <field type="int">atomspertype</field>
   <field type="string">element</field>
   <field>mass</field>
   <field>valence</field>
   <field type="string">pseudopotential</field>
   <set>
    <rc><c>   1</c><c>Te</c><c>    127.60000000</c><c>      6.00000000</c><c> PAW_GGA Te 07Sep2001                   </c></rc>
    <rc><c>   1</c><c>Pb</c><c>    207.20000000</c><c>     14.00000000</c><c> PAW_GGA Pb_d 04May1998                 </c></rc>
   </set>
  </array>
 </atominfo>
 <structure name="initialpos" >
  <crystal>
   <varray name="basis" >
    <v>       4.02098700       0.00000000       2.32151800 </v>
    <v>       1.34032900       3.79102300       2.32151800 </v>
    <v>       0.00000000       0.00000000       4.64303600 </v>
   </varray>
   <i name="volume">     70.77683522 </i>
   <varray name="rec_basis" >
    <v>       0.24869516      -0.08792701       0.00000000 </v>
    <v>       0.00000000       0.26378104       0.00000000 </v>
    <v>      -0.12434758      -0.08792701       0.21537632 </v>
   </varray>
  </crystal>
  <varray name="positions" >
   <v>       0.00000000       0.00000000       0.00000000 </v>
   <v>       0.50000000       0.50000000       0.50000000 </v>
  </varray>
 </structure>
 <calculation>
  <scstep>
   <time name="dav">    2.09    2.10</time>
   <time name="total">    2.12    2.15</time>
   <energy>
    <i name="alphaZ">     33.93374717 </i>
    <i name="ewald">  -1367.07702873 </i>
    <i name="hartreedc">   -511.73130133 </i>
    <i name="XCdc">      8.88504895 </i>
    <i name="pawpsdc">   1334.61593709 </i>
    <i name="pawaedc">  -1278.72649931 </i>
    <i name="eentropy">     -0.00000000 </i>
    <i name="bandstr">     52.73523497 </i>
    <i name="atom">   1886.33150510 </i>
    <i name="e_fr_energy">    158.96664391 </i>
    <i name="e_wo_entrp">    158.96664391 </i>
    <i name="e_0_energy">    158.96664391 </i>
   </energy>
  </scstep>
  <scstep>
   <time name="dav">    2.14    2.15</time>
   <time name="total">    2.14    2.16</time>
   <energy>
    <i name="e_fr_energy">      4.47511837 </i>
    <i name="e_wo_entrp">      4.47511837 </i>
    <i name="e_0_energy">      4.47511837 </i>
   </energy>
  </scstep>
  <scstep>
   <time name="dav">    2.52    2.52</time>
   <time name="total">    2.52    2.53</time>
   <energy>
    <i name="e_fr_energy">     -7.08330008 </i>
    <i name="e_wo_entrp">     -7.08330008 </i>
    <i name="e_0_energy">     -7.08330008 </i>
   </energy>
  </scstep>
  <scstep>
   <time name="dav">    2.30    2.31</time>
   <time name="total">    2.30    2.32</time>
   <energy>
    <i name="e_fr_energy">     -7.41582635 </i>
    <i name="e_wo_entrp">     -7.41582635 </i>
    <i name="e_0_energy">     -7.41582635 </i>
   </energy>
  </scstep>
  <scstep>
   <time name="dav">    2.63    2.64</time>
   <time name="total">    2.64    2.67</time>
   <energy>
    <i name="e_fr_energy">     -7.43068011 </i>
    <i name="e_wo_entrp">     -7.43068011 </i>
    <i name="e_0_energy">     -7.43068011 </i>
   </energy>
  </scstep>
  <scstep>
   <time name="dav">    2.58    2.60</time>
   <time name="total">    2.59    2.60</time>
   <energy>
    <i name="e_fr_energy">     -7.43122510 </i>
    <i name="e_wo_entrp">     -7.43122510 </i>
    <i name="e_0_energy">     -7.43122510 </i>
   </energy>
  </scstep>
  <scstep>
   <time name="dav">    1.96    1.97</time>
   <time name="total">    1.96    1.97</time>
   <energy>
    <i name="alphaZ">     33.93374717 </i>
    <i name="ewald">  -1367.07702873 </i>
    <i name="hartreedc">   -511.73130133 </i>
    <i name="XCdc">      8.88504895 </i>
    <i name="pawpsdc">   1334.61593709 </i>
    <i name="pawaedc">  -1278.72649931 </i>
    <i name="eentropy">      0.00000000 </i>
    <i name="bandstr">   -113.66264101 </i>
    <i name="atom">   1886.33150510 </i>
    <i name="e_fr_energy">     -7.43123206 </i>
    <i name="e_wo_entrp">     -7.43123206 </i>
    <i name="e_0_energy">     -7.43123206 </i>
   </energy>
  </scstep>
  <structure>
   <crystal>
    <varray name="basis" >
     <v>       4.02098700       0.00000000       2.32151800 </v>
     <v>       1.34032900       3.79102300       2.32151800 </v>
     <v>       0.00000000       0.00000000       4.64303600 </v>
    </varray>
    <i name="volume">     70.77683522 </i>
    <varray name="rec_basis" >
     <v>       0.24869516      -0.08792701       0.00000000 </v>
     <v>       0.00000000       0.26378104       0.00000000 </v>
     <v>      -0.12434758      -0.08792701       0.21537632 </v>
    </varray>
   </crystal>
   <varray name="positions" >
    <v>       0.00000000       0.00000000       0.00000000 </v>
    <v>       0.50000000       0.50000000       0.50000000 </v>
   </varray>
  </structure>
  <varray name="forces" >
   <v>       0.00007761      -0.00010320      -0.00000877 </v>
   <v>      -0.00007761       0.00010320       0.00000877 </v>
  </varray>
  <varray name="stress" >
   <v>      17.65300545     -73.28816058     -86.99299064 </v>
   <v>     -73.28816017      44.42254471      36.38525473 </v>
   <v>     -86.99299066      36.38525425      -6.34803009 </v>
  </varray>
  <energy>
   <i name="e_fr_energy">     -7.43123206 </i>
   <i name="e_wo_entrp">     -7.43123206 </i>
   <i name="e_0_energy">      0.00000000 </i>
  </energy>
  <time name="totalsc">   18.48   18.69</time>
  <eigenvalues>
   <array>
    <dimension dim="1">band</dimension>
    <dimension dim="2">kpoint</dimension>
    <dimension dim="3">spin</dimension>
    <field>eigene</field>
    <field>occ</field>
    <set>
     <set comment="spin 1">
      <set comment="kpoint 1">
       <r>  -11.7123    1.0000 </r>
       <r>  -11.7123    1.0000 </r>
       <r>  -11.7024    1.0000 </r>
       <r>  -11.7024    1.0000 </r>
       <r>  -11.7024    1.0000 </r>
       <r>   -6.6277    1.0000 </r>
       <r>   -0.6962    1.0000 </r>
       <r>    3.8199    1.0000 </r>
       <r>    3.8199    1.0000 </r>
       <r>    3.8199    1.0000 </r>
       <r>    8.9939    0.0000 </r>
       <r>    8.9939    0.0000 </r>
       <r>    8.9939    0.0000 </r>
       <r>   10.9033    0.0000 </r>
       <r>   10.9033    0.0000 </r>
       <r>   10.9033    0.0000 </r>
       <r>   12.4381    0.0000 </r>
       <r>   12.5272    0.0000 </r>
       <r>   12.9759    0.0000 </r>
       <r>   12.9759    0.0000 </r>
      </set>
      <set comment="kpoint 2">
       <r>  -11.7125    1.0000 </r>
       <r>  -11.7122    1.0000 </r>
       <r>  -11.7025    1.0000 </r>
       <r>  -11.7023    1.0000 </r>
       <r>  -11.7023    1.0000 </r>
       <r>   -6.6209    1.0000 </r>
       <r>   -0.7175    1.0000 </r>
       <r>    3.8093    1.0000 </r>
       <r>    3.8093    1.0000 </r>
       <r>    3.8568    1.0000 </r>
       <r>    8.8753    0.0000 </r>
       <r>    8.9935    0.0000 </r>
       <r>    8.9935    0.0000 </r>
       <r>   10.8515    0.0000 </r>
       <r>   10.9370    0.0000 </r>
       <r>   10.9370    0.0000 </r>
       <r>   12.4894    0.0000 </r>
       <r>   12.5953    0.0000 </r>
       <r>   12.9823    0.0000 </r>
       <r>   13.0703    0.0000 </r>
      </set>
      <set comment="kpoint 3">
       <r>  -11.7130    1.0000 </r>
       <r>  -11.7121    1.0000 </r>
       <r>  -11.7026    1.0000 </r>
       <r>  -11.7020    1.0000 </r>
       <r>  -11.7020    1.0000 </r>
       <r>   -6.6008    1.0000 </r>
       <r>   -0.7789    1.0000 </r>
       <r>    3.7780    1.0000 </r>
       <r>    3.7780    1.0000 </r>
       <r>    3.9636    1.0000 </r>
       <r>    8.5642    0.0000 </r>
       <r>    8.9938    0.0000 </r>
       <r>    8.9938    0.0000 </r>
       <r>   10.7167    0.0000 </r>
       <r>   11.0358    0.0000 </r>
       <r>   11.0358    0.0000 </r>
       <r>   12.5770    0.0000 </r>
       <r>   12.7790    0.0000 </r>
       <r>   13.0014    0.0000 </r>
       <r>   13.3761    0.0000 </r>
      </set>
      <set comment="kpoint 4">
       <r>  -11.7140    1.0000 </r>
       <r>  -11.7118    1.0000 </r>
       <r>  -11.7029    1.0000 </r>
       <r>  -11.7014    1.0000 </r>
       <r>  -11.7014    1.0000 </r>
       <r>   -6.5674    1.0000 </r>
       <r>   -0.8736    1.0000 </r>
       <r>    3.7275    1.0000 </r>
       <r>    3.7275    1.0000 </r>
       <r>    4.1289    1.0000 </r>
       <r>    8.1450    0.0000 </r>
       <r>    8.9987    0.0000 </r>
       <r>    8.9987    0.0000 </r>
       <r>   10.5361    0.0000 </r>
       <r>   11.1941    0.0000 </r>
       <r>   11.1941    0.0000 </r>
       <r>   12.6492    0.0000 </r>
       <r>   13.0333    0.0000 </r>
       <r>   13.0410    0.0000 </r>
       <r>   13.8650    0.0000 </r>
      </set>
      <set comment="kpoint 5">
       <r>  -11.7153    1.0000 </r>
       <r>  -11.7114    1.0000 </r>
       <r>  -11.7032    1.0000 </r>
       <r>  -11.7005    1.0000 </r>
       <r>  -11.7005    1.0000 </r>
       <r>   -6.5208    1.0000 </r>
       <r>   -0.9927    1.0000 </r>
       <r>    3.6599    1.0000 </r>
       <r>    3.6599    1.0000 </r>
       <r>    4.3329    1.0000 </r>
       <r>    7.6886    0.0000 </r>
       <r>    9.0126    0.0000 </r>
       <r>    9.0126    0.0000 </r>
       <r>   10.3368    0.0000 </r>
       <r>   11.4047    0.0000 </r>
       <r>   11.4047    0.0000 </r>
       <r>   12.7163    0.0000 </r>
       <r>   13.0780    0.0000 </r>
       <r>   13.3542    0.0000 </r>
       <r>   14.4661    0.0000 </r>
      </set>
      <set comment="kpoint 6">
       <r>  -11.7171    1.0000 </r>
       <r>  -11.7109    1.0000 </r>
       <r>  -11.7036    1.0000 </r>
       <r>  -11.6995    1.0000 </r>
       <r>  -11.6995    1.0000 </r>
       <r>   -6.4616    1.0000 </r>
       <r>   -1.1273    1.0000 </r>
       <r>    3.5781    1.0000 </r>
       <r>    3.5781    1.0000 </r>
       <r>    4.5429    1.0000 </r>
       <r>    7.2533    0.0000 </r>
       <r>    9.0391    0.0000 </r>
       <r>    9.0391    0.0000 </r>
       <r>   10.1336    0.0000 </r>
       <r>   11.6605    0.0000 </r>
       <r>   11.6605    0.0000 </r>
       <r>   12.7891    0.0000 </r>
       <r>   13.1353    0.0000 </r>
       <r>   13.7037    0.0000 </r>
       <r>   15.1328    0.0000 </r>
      </set>
      <set comment="kpoint 7">
       <r>  -11.7193    1.0000 </r>
       <r>  -11.7104    1.0000 </r>
       <r>  -11.7041    1.0000 </r>
       <r>  -11.6983    1.0000 </r>
       <r>  -11.6983    1.0000 </r>
       <r>   -6.3900    1.0000 </r>
       <r>   -1.2695    1.0000 </r>
       <r>    3.4852    1.0000 </r>
       <r>    3.4852    1.0000 </r>
       <r>    4.6988    1.0000 </r>
       <r>    6.9097    0.0000 </r>
       <r>    9.0805    0.0000 </r>
       <r>    9.0805    0.0000 </r>
       <r>    9.9344    0.0000 </r>
       <r>   11.9549    0.0000 </r>
       <r>   11.9549    0.0000 </r>
       <r>   12.8726    0.0000 </r>
       <r>   13.2054    0.0000 </r>
       <r>   14.0815    0.0000 </r>
       <r>   15.8395    0.0000 </r>
      </set>
      <set comment="kpoint 8">
       <r>  -11.7219    1.0000 </r>
       <r>  -11.7098    1.0000 </r>
       <r>  -11.7046    1.0000 </r>
       <r>  -11.6970    1.0000 </r>
       <r>  -11.6970    1.0000 </r>
       <r>   -6.3067    1.0000 </r>
       <r>   -1.4126    1.0000 </r>
       <r>    3.3845    1.0000 </r>
       <r>    3.3845    1.0000 </r>
       <r>    4.7063    1.0000 </r>
       <r>    6.7562    0.0000 </r>
       <r>    9.1376    0.0000 </r>
       <r>    9.1376    0.0000 </r>
       <r>    9.7436    0.0000 </r>
       <r>   12.2826    0.0000 </r>
       <r>   12.2826    0.0000 </r>
       <r>   12.9688    0.0000 </r>
       <r>   13.2880    0.0000 </r>
       <r>   14.4833    0.0000 </r>
       <r>   16.5699    0.0000 </r>
      </set>
      <set comment="kpoint 9">
       <r>  -11.7248    1.0000 </r>
       <r>  -11.7091    1.0000 </r>
       <r>  -11.7052    1.0000 </r>
       <r>  -11.6955    1.0000 </r>
       <r>  -11.6955    1.0000 </r>
       <r>   -6.2128    1.0000 </r>
       <r>   -1.5515    1.0000 </r>
       <r>    3.2790    1.0000 </r>
       <r>    3.2790    1.0000 </r>
       <r>    4.5093    1.0000 </r>
       <r>    6.8497    0.0000 </r>
       <r>    9.2101    0.0000 </r>
       <r>    9.2101    0.0000 </r>
       <r>    9.5637    0.0000 </r>
       <r>   12.6388    0.0000 </r>
       <r>   12.6388    0.0000 </r>
       <r>   13.0791    0.0000 </r>
       <r>   13.3832    0.0000 </r>
       <r>   14.9063    0.0000 </r>
       <r>   17.3096    0.0000 </r>
      </set>
      <set comment="kpoint 10">
       <r>  -11.7281    1.0000 </r>
       <r>  -11.7084    1.0000 </r>
       <r>  -11.7058    1.0000 </r>
       <r>  -11.6939    1.0000 </r>
       <r>  -11.6939    1.0000 </r>
       <r>   -6.1092    1.0000 </r>
       <r>   -1.6824    1.0000 </r>
       <r>    3.1719    1.0000 </r>
       <r>    3.1719    1.0000 </r>
       <r>    4.1648    1.0000 </r>
       <r>    7.1327    0.0000 </r>
       <r>    9.2966    0.0000 </r>
       <r>    9.2966    0.0000 </r>
       <r>    9.3960    0.0000 </r>
       <r>   13.0193    0.0000 </r>
       <r>   13.0193    0.0000 </r>
       <r>   13.2042    0.0000 </r>
       <r>   13.4908    0.0000 </r>
       <r>   15.3489    0.0000 </r>
       <r>   18.0345    0.0000 </r>
      </set>
      <set comment="kpoint 11">
       <r>  -11.7317    1.0000 </r>
       <r>  -11.7077    1.0000 </r>
       <r>  -11.7064    1.0000 </r>
       <r>  -11.6923    1.0000 </r>
       <r>  -11.6923    1.0000 </r>
       <r>   -5.9977    1.0000 </r>
       <r>   -1.8020    1.0000 </r>
       <r>    3.0659    1.0000 </r>
       <r>    3.0659    1.0000 </r>
       <r>    3.7536    1.0000 </r>
       <r>    7.5233    0.0000 </r>
       <r>    9.2416    0.0000 </r>
       <r>    9.3955    0.0000 </r>
       <r>    9.3955    0.0000 </r>
       <r>   13.3450    0.0000 </r>
       <r>   13.4203    0.0000 </r>
       <r>   13.4203    0.0000 </r>
       <r>   13.6104    0.0000 </r>
       <r>   15.8100    0.0000 </r>
       <r>   18.6598    0.0000 </r>
      </set>
      <set comment="kpoint 12">
       <r>  -11.7355    1.0000 </r>
       <r>  -11.7070    1.0000 </r>
       <r>  -11.7070    1.0000 </r>
       <r>  -11.6906    1.0000 </r>
       <r>  -11.6906    1.0000 </r>
       <r>   -5.8801    1.0000 </r>
       <r>   -1.9082    1.0000 </r>
       <r>    2.9633    1.0000 </r>
       <r>    2.9633    1.0000 </r>
       <r>    3.3227    1.0000 </r>
       <r>    7.9727    0.0000 </r>
       <r>    9.1011    0.0000 </r>
       <r>    9.5040    0.0000 </r>
       <r>    9.5040    0.0000 </r>
       <r>   13.5021    0.0000 </r>
       <r>   13.7418    0.0000 </r>
       <r>   13.8378    0.0000 </r>
       <r>   13.8378    0.0000 </r>
       <r>   16.2887    0.0000 </r>
       <r>   18.9332    0.0000 </r>
      </set>
      <set comment="kpoint 13">
       <r>  -11.7394    1.0000 </r>
       <r>  -11.7076    1.0000 </r>
       <r>  -11.7063    1.0000 </r>
       <r>  -11.6890    1.0000 </r>
       <r>  -11.6890    1.0000 </r>
       <r>   -5.7591    1.0000 </r>
       <r>   -1.9991    1.0000 </r>
       <r>    2.8664    1.0000 </r>
       <r>    2.8664    1.0000 </r>
       <r>    2.8960    1.0000 </r>
       <r>    8.4549    0.0000 </r>
       <r>    8.9748    0.0000 </r>
       <r>    9.6192    0.0000 </r>
       <r>    9.6192    0.0000 </r>
       <r>   13.6765    0.0000 </r>
       <r>   13.8843    0.0000 </r>
       <r>   14.2673    0.0000 </r>
       <r>   14.2673    0.0000 </r>
       <r>   16.7841    0.0000 </r>
       <r>   18.5662    0.0000 </r>
      </set>
      <set comment="kpoint 14">
       <r>  -11.7433    1.0000 </r>
       <r>  -11.7082    1.0000 </r>
       <r>  -11.7057    1.0000 </r>
       <r>  -11.6874    1.0000 </r>
       <r>  -11.6874    1.0000 </r>
       <r>   -5.6377    1.0000 </r>
       <r>   -2.0736    1.0000 </r>
       <r>    2.4869    1.0000 </r>
       <r>    2.7769    1.0000 </r>
       <r>    2.7769    1.0000 </r>
       <r>    8.8629    0.0000 </r>
       <r>    8.9532    0.0000 </r>
       <r>    9.7374    0.0000 </r>
       <r>    9.7374    0.0000 </r>
       <r>   13.8691    0.0000 </r>
       <r>   14.0371    0.0000 </r>
       <r>   14.7028    0.0000 </r>
       <r>   14.7028    0.0000 </r>
       <r>   17.2954    0.0000 </r>
       <r>   18.2216    0.0000 </r>
      </set>
      <set comment="kpoint 15">
       <r>  -11.7470    1.0000 </r>
       <r>  -11.7087    1.0000 </r>
       <r>  -11.7051    1.0000 </r>
       <r>  -11.6859    1.0000 </r>
       <r>  -11.6859    1.0000 </r>
       <r>   -5.5194    1.0000 </r>
       <r>   -2.1309    1.0000 </r>
       <r>    2.1051    1.0000 </r>
       <r>    2.6965    1.0000 </r>
       <r>    2.6965    1.0000 </r>
       <r>    8.7658    0.0000 </r>
       <r>    9.4535    0.0000 </r>
       <r>    9.8547    0.0000 </r>
       <r>    9.8547    0.0000 </r>
       <r>   14.0813    0.0000 </r>
       <r>   14.1986    0.0000 </r>
       <r>   15.1354    0.0000 </r>
       <r>   15.1354    0.0000 </r>
       <r>   17.8205    0.0000 </r>
       <r>   17.8572    0.0000 </r>
      </set>
      <set comment="kpoint 16">
       <r>  -11.7504    1.0000 </r>
       <r>  -11.7092    1.0000 </r>
       <r>  -11.7045    1.0000 </r>
       <r>  -11.6846    1.0000 </r>
       <r>  -11.6846    1.0000 </r>
       <r>   -5.4085    1.0000 </r>
       <r>   -2.1714    1.0000 </r>
       <r>    1.7590    1.0000 </r>
       <r>    2.6264    1.0000 </r>
       <r>    2.6264    1.0000 </r>
       <r>    8.6835    0.0000 </r>
       <r>    9.9410    0.0000 </r>
       <r>    9.9665    0.0000 </r>
       <r>    9.9665    0.0000 </r>
       <r>   14.3143    0.0000 </r>
       <r>   14.3663    0.0000 </r>
       <r>   15.5505    0.0000 </r>
       <r>   15.5505    0.0000 </r>
       <r>   17.4095    0.0000 </r>
       <r>   17.6110    0.0000 </r>
      </set>
      <set comment="kpoint 17">
       <r>  -11.7533    1.0000 </r>
       <r>  -11.7095    1.0000 </r>
       <r>  -11.7040    1.0000 </r>
       <r>  -11.6835    1.0000 </r>
       <r>  -11.6835    1.0000 </r>
       <r>   -5.3094    1.0000 </r>
       <r>   -2.1964    1.0000 </r>
       <r>    1.4568    1.0000 </r>
       <r>    2.5677    1.0000 </r>
       <r>    2.5677    1.0000 </r>
       <r>    8.6160    0.0000 </r>
       <r>   10.0678    0.0000 </r>
       <r>   10.0678    0.0000 </r>
       <r>   10.3977    0.0000 </r>
       <r>   14.5360    0.0000 </r>
       <r>   14.5695    0.0000 </r>
       <r>   15.9217    0.0000 </r>
       <r>   15.9217    0.0000 </r>
       <r>   17.0588    0.0000 </r>
       <r>   17.2998    0.0000 </r>
      </set>
      <set comment="kpoint 18">
       <r>  -11.7558    1.0000 </r>
       <r>  -11.7099    1.0000 </r>
       <r>  -11.7037    1.0000 </r>
       <r>  -11.6826    1.0000 </r>
       <r>  -11.6826    1.0000 </r>
       <r>   -5.2266    1.0000 </r>
       <r>   -2.2085    1.0000 </r>
       <r>    1.2074    1.0000 </r>
       <r>    2.5212    1.0000 </r>
       <r>    2.5212    1.0000 </r>
       <r>    8.5635    0.0000 </r>
       <r>   10.1536    0.0000 </r>
       <r>   10.1536    0.0000 </r>
       <r>   10.8010    0.0000 </r>
       <r>   14.7004    0.0000 </r>
       <r>   14.8473    0.0000 </r>
       <r>   16.2083    0.0000 </r>
       <r>   16.2083    0.0000 </r>
       <r>   16.7333    0.0000 </r>
       <r>   17.0310    0.0000 </r>
      </set>
      <set comment="kpoint 19">
       <r>  -11.7577    1.0000 </r>
       <r>  -11.7101    1.0000 </r>
       <r>  -11.7034    1.0000 </r>
       <r>  -11.6819    1.0000 </r>
       <r>  -11.6819    1.0000 </r>
       <r>   -5.1641    1.0000 </r>
       <r>   -2.2118    1.0000 </r>
       <r>    1.0199    1.0000 </r>
       <r>    2.4875    1.0000 </r>
       <r>    2.4875    1.0000 </r>
       <r>    8.5260    0.0000 </r>
       <r>   10.2190    0.0000 </r>
       <r>   10.2190    0.0000 </r>
       <r>   11.1230    0.0000 </r>
       <r>   14.8464    0.0000 </r>
       <r>   15.1445    0.0000 </r>
       <r>   16.3777    0.0000 </r>
       <r>   16.3777    0.0000 </r>
       <r>   16.4293    0.0000 </r>
       <r>   16.8105    0.0000 </r>
      </set>
      <set comment="kpoint 20">
       <r>  -11.7588    1.0000 </r>
       <r>  -11.7102    1.0000 </r>
       <r>  -11.7032    1.0000 </r>
       <r>  -11.6815    1.0000 </r>
       <r>  -11.6815    1.0000 </r>
       <r>   -5.1253    1.0000 </r>
       <r>   -2.2110    1.0000 </r>
       <r>    0.9030    1.0000 </r>
       <r>    2.4671    1.0000 </r>
       <r>    2.4671    1.0000 </r>
       <r>    8.5034    0.0000 </r>
       <r>   10.2601    0.0000 </r>
       <r>   10.2601    0.0000 </r>
       <r>   11.3334    0.0000 </r>
       <r>   14.9525    0.0000 </r>
       <r>   15.4477    0.0000 </r>
       <r>   16.1412    0.0000 </r>
       <r>   16.4476    0.0000 </r>
       <r>   16.4477    0.0000 </r>
       <r>   16.6599    0.0000 </r>
      </set>
      <set comment="kpoint 21">
       <r>  -11.7592    1.0000 </r>
       <r>  -11.7103    1.0000 </r>
       <r>  -11.7032    1.0000 </r>
       <r>  -11.6814    1.0000 </r>
       <r>  -11.6814    1.0000 </r>
       <r>   -5.1121    1.0000 </r>
       <r>   -2.2102    1.0000 </r>
       <r>    0.8632    1.0000 </r>
       <r>    2.4603    1.0000 </r>
       <r>    2.4603    1.0000 </r>
       <r>    8.4959    0.0000 </r>
       <r>   10.2742    0.0000 </r>
       <r>   10.2742    0.0000 </r>
       <r>   11.4069    0.0000 </r>
       <r>   14.9923    0.0000 </r>
       <r>   15.6559    0.0000 </r>
       <r>   15.9428    0.0000 </r>
       <r>   16.4642    0.0000 </r>
       <r>   16.4643    0.0000 </r>
       <r>   16.6058    0.0000 </r>
      </set>
      <set comment="kpoint 22">
       <r>  -11.7592    1.0000 </r>
       <r>  -11.7103    1.0000 </r>
       <r>  -11.7032    1.0000 </r>
       <r>  -11.6814    1.0000 </r>
       <r>  -11.6814    1.0000 </r>
       <r>   -5.1121    1.0000 </r>
       <r>   -2.2102    1.0000 </r>
       <r>    0.8632    1.0000 </r>
       <r>    2.4603    1.0000 </r>
       <r>    2.4603    1.0000 </r>
       <r>    8.4959    0.0000 </r>
       <r>   10.2742    0.0000 </r>
       <r>   10.2742    0.0000 </r>
       <r>   11.4069    0.0000 </r>
       <r>   14.9923    0.0000 </r>
       <r>   15.6558    0.0000 </r>
       <r>   15.9428    0.0000 </r>
       <r>   16.4642    0.0000 </r>
       <r>   16.4643    0.0000 </r>
       <r>   16.6058    0.0000 </r>
      </set>
      <set comment="kpoint 23">
       <r>  -11.7589    1.0000 </r>
       <r>  -11.7101    1.0000 </r>
       <r>  -11.7034    1.0000 </r>
       <r>  -11.6815    1.0000 </r>
       <r>  -11.6814    1.0000 </r>
       <r>   -5.1090    1.0000 </r>
       <r>   -2.2267    1.0000 </r>
       <r>    0.8706    1.0000 </r>
       <r>    2.4462    1.0000 </r>
       <r>    2.4992    1.0000 </r>
       <r>    8.5211    0.0000 </r>
       <r>   10.1781    0.0000 </r>
       <r>   10.2863    0.0000 </r>
       <r>   11.3916    0.0000 </r>
       <r>   15.0448    0.0000 </r>
       <r>   15.7138    0.0000 </r>
       <r>   15.7208    0.0000 </r>
       <r>   16.3196    0.0000 </r>
       <r>   16.4656    0.0000 </r>
       <r>   16.9756    0.0000 </r>
      </set>
      <set comment="kpoint 24">
       <r>  -11.7581    1.0000 </r>
       <r>  -11.7096    1.0000 </r>
       <r>  -11.7039    1.0000 </r>
       <r>  -11.6821    1.0000 </r>
       <r>  -11.6814    1.0000 </r>
       <r>   -5.1000    1.0000 </r>
       <r>   -2.2737    1.0000 </r>
       <r>    0.8927    1.0000 </r>
       <r>    2.4047    1.0000 </r>
       <r>    2.6135    1.0000 </r>
       <r>    8.5953    0.0000 </r>
       <r>    9.9125    0.0000 </r>
       <r>   10.3229    0.0000 </r>
       <r>   11.3464    0.0000 </r>
       <r>   15.1550    0.0000 </r>
       <r>   15.2703    0.0000 </r>
       <r>   15.9071    0.0000 </r>
       <r>   16.2968    0.0000 </r>
       <r>   16.4698    0.0000 </r>
       <r>   17.4582    0.0000 </r>
      </set>
      <set comment="kpoint 25">
       <r>  -11.7567    1.0000 </r>
       <r>  -11.7088    1.0000 </r>
       <r>  -11.7048    1.0000 </r>
       <r>  -11.6830    1.0000 </r>
       <r>  -11.6814    1.0000 </r>
       <r>   -5.0857    1.0000 </r>
       <r>   -2.3449    1.0000 </r>
       <r>    0.9293    1.0000 </r>
       <r>    2.3385    1.0000 </r>
       <r>    2.7965    1.0000 </r>
       <r>    8.7148    0.0000 </r>
       <r>    9.5274    0.0000 </r>
       <r>   10.3847    0.0000 </r>
       <r>   11.2729    0.0000 </r>
       <r>   14.7797    0.0000 </r>
       <r>   15.2548    0.0000 </r>
       <r>   16.2293    0.0000 </r>
       <r>   16.3166    0.0000 </r>
       <r>   16.4763    0.0000 </r>
       <r>   17.2973    0.0000 </r>
      </set>
      <set comment="kpoint 26">
       <r>  -11.7550    1.0000 </r>
       <r>  -11.7077    1.0000 </r>
       <r>  -11.7060    1.0000 </r>
       <r>  -11.6843    1.0000 </r>
       <r>  -11.6814    1.0000 </r>
       <r>   -5.0671    1.0000 </r>
       <r>   -2.4317    1.0000 </r>
       <r>    0.9799    1.0000 </r>
       <r>    2.2515    1.0000 </r>
       <r>    3.0385    1.0000 </r>
       <r>    8.8739    0.0000 </r>
       <r>    9.0710    0.0000 </r>
       <r>   10.4731    0.0000 </r>
       <r>   11.1737    0.0000 </r>
       <r>   14.2876    0.0000 </r>
       <r>   15.3349    0.0000 </r>
       <r>   16.3559    0.0000 </r>
       <r>   16.4848    0.0000 </r>
       <r>   16.5252    0.0000 </r>
       <r>   17.3061    0.0000 </r>
      </set>
      <set comment="kpoint 27">
       <r>  -11.7530    1.0000 </r>
       <r>  -11.7074    1.0000 </r>
       <r>  -11.7062    1.0000 </r>
       <r>  -11.6858    1.0000 </r>
       <r>  -11.6813    1.0000 </r>
       <r>   -5.0456    1.0000 </r>
       <r>   -2.5247    1.0000 </r>
       <r>    1.0442    1.0000 </r>
       <r>    2.1480    1.0000 </r>
       <r>    3.3284    1.0000 </r>
       <r>    8.5798    0.0000 </r>
       <r>    9.0651    0.0000 </r>
       <r>   10.5904    0.0000 </r>
       <r>   11.0518    0.0000 </r>
       <r>   13.8051    0.0000 </r>
       <r>   15.4090    0.0000 </r>
       <r>   16.4110    0.0000 </r>
       <r>   16.4945    0.0000 </r>
       <r>   16.5560    0.0000 </r>
       <r>   17.6593    0.0000 </r>
      </set>
      <set comment="kpoint 28">
       <r>  -11.7508    1.0000 </r>
       <r>  -11.7089    1.0000 </r>
       <r>  -11.7046    1.0000 </r>
       <r>  -11.6876    1.0000 </r>
       <r>  -11.6814    1.0000 </r>
       <r>   -5.0232    1.0000 </r>
       <r>   -2.6148    1.0000 </r>
       <r>    1.1213    1.0000 </r>
       <r>    2.0328    1.0000 </r>
       <r>    3.6532    1.0000 </r>
       <r>    8.0807    0.0000 </r>
       <r>    9.2796    0.0000 </r>
       <r>   10.7398    0.0000 </r>
       <r>   10.9101    0.0000 </r>
       <r>   13.3385    0.0000 </r>
       <r>   15.4861    0.0000 </r>
       <r>   16.4394    0.0000 </r>
       <r>   16.4813    0.0000 </r>
       <r>   16.5038    0.0000 </r>
       <r>   17.4874    0.0000 </r>
      </set>
      <set comment="kpoint 29">
       <r>  -11.7487    1.0000 </r>
       <r>  -11.7105    1.0000 </r>
       <r>  -11.7027    1.0000 </r>
       <r>  -11.6896    1.0000 </r>
       <r>  -11.6814    1.0000 </r>
       <r>   -5.0020    1.0000 </r>
       <r>   -2.6942    1.0000 </r>
       <r>    1.2103    1.0000 </r>
       <r>    1.9104    1.0000 </r>
       <r>    3.9960    1.0000 </r>
       <r>    7.5982    0.0000 </r>
       <r>    9.5076    0.0000 </r>
       <r>   10.7511    0.0000 </r>
       <r>   10.9251    0.0000 </r>
       <r>   12.8926    0.0000 </r>
       <r>   15.5706    0.0000 </r>
       <r>   16.2953    0.0000 </r>
       <r>   16.5127    0.0000 </r>
       <r>   16.5666    0.0000 </r>
       <r>   17.3355    0.0000 </r>
      </set>
      <set comment="kpoint 30">
       <r>  -11.7469    1.0000 </r>
       <r>  -11.7118    1.0000 </r>
       <r>  -11.7007    1.0000 </r>
       <r>  -11.6917    1.0000 </r>
       <r>  -11.6814    1.0000 </r>
       <r>   -4.9845    1.0000 </r>
       <r>   -2.7561    1.0000 </r>
       <r>    1.3102    1.0000 </r>
       <r>    1.7845    1.0000 </r>
       <r>    4.3292    1.0000 </r>
       <r>    7.1635    0.0000 </r>
       <r>    9.7394    0.0000 </r>
       <r>   10.5764    0.0000 </r>
       <r>   11.1504    0.0000 </r>
       <r>   12.4725    0.0000 </r>
       <r>   15.6644    0.0000 </r>
       <r>   16.1514    0.0000 </r>
       <r>   16.5199    0.0000 </r>
       <r>   16.6662    0.0000 </r>
       <r>   17.1854    0.0000 </r>
      </set>
      <set comment="kpoint 31">
       <r>  -11.7456    1.0000 </r>
       <r>  -11.7128    1.0000 </r>
       <r>  -11.6985    1.0000 </r>
       <r>  -11.6940    1.0000 </r>
       <r>  -11.6814    1.0000 </r>
       <r>   -4.9730    1.0000 </r>
       <r>   -2.7955    1.0000 </r>
       <r>    1.4194    1.0000 </r>
       <r>    1.6589    1.0000 </r>
       <r>    4.5988    1.0000 </r>
       <r>    6.8324    0.0000 </r>
       <r>    9.9667    0.0000 </r>
       <r>   10.3871    0.0000 </r>
       <r>   11.4188    0.0000 </r>
       <r>   12.0834    0.0000 </r>
       <r>   15.7679    0.0000 </r>
       <r>   16.0160    0.0000 </r>
       <r>   16.5246    0.0000 </r>
       <r>   16.7793    0.0000 </r>
       <r>   17.0409    0.0000 </r>
      </set>
      <set comment="kpoint 32">
       <r>  -11.7452    1.0000 </r>
       <r>  -11.7131    1.0000 </r>
       <r>  -11.6962    1.0000 </r>
       <r>  -11.6962    1.0000 </r>
       <r>  -11.6814    1.0000 </r>
       <r>   -4.9689    1.0000 </r>
       <r>   -2.8090    1.0000 </r>
       <r>    1.5363    1.0000 </r>
       <r>    1.5363    1.0000 </r>
       <r>    4.7102    1.0000 </r>
       <r>    6.7005    0.0000 </r>
       <r>   10.1835    0.0000 </r>
       <r>   10.1835    0.0000 </r>
       <r>   11.7307    0.0000 </r>
       <r>   11.7307    0.0000 </r>
       <r>   15.8603    0.0000 </r>
       <r>   15.9127    0.0000 </r>
       <r>   16.5262    0.0000 </r>
       <r>   16.9048    0.0000 </r>
       <r>   16.9048    0.0000 </r>
      </set>
      <set comment="kpoint 33">
       <r>  -11.7452    1.0000 </r>
       <r>  -11.7131    1.0000 </r>
       <r>  -11.6962    1.0000 </r>
       <r>  -11.6962    1.0000 </r>
       <r>  -11.6814    1.0000 </r>
       <r>   -4.9689    1.0000 </r>
       <r>   -2.8090    1.0000 </r>
       <r>    1.5363    1.0000 </r>
       <r>    1.5363    1.0000 </r>
       <r>    4.7102    1.0000 </r>
       <r>    6.7005    0.0000 </r>
       <r>   10.1835    0.0000 </r>
       <r>   10.1835    0.0000 </r>
       <r>   11.7307    0.0000 </r>
       <r>   11.7307    0.0000 </r>
       <r>   15.8603    0.0000 </r>
       <r>   15.9127    0.0000 </r>
       <r>   16.5262    0.0000 </r>
       <r>   16.9048    0.0000 </r>
       <r>   16.9048    0.0000 </r>
      </set>
      <set comment="kpoint 34">
       <r>  -11.7453    1.0000 </r>
       <r>  -11.7130    1.0000 </r>
       <r>  -11.6978    1.0000 </r>
       <r>  -11.6946    1.0000 </r>
       <r>  -11.6814    1.0000 </r>
       <r>   -4.9729    1.0000 </r>
       <r>   -2.8068    1.0000 </r>
       <r>    1.4558    1.0000 </r>
       <r>    1.6431    1.0000 </r>
       <r>    4.6481    1.0000 </r>
       <r>    6.7674    0.0000 </r>
       <r>   10.0185    0.0000 </r>
       <r>   10.3268    0.0000 </r>
       <r>   11.4827    0.0000 </r>
       <r>   11.9781    0.0000 </r>
       <r>   15.8326    0.0000 </r>
       <r>   15.9579    0.0000 </r>
       <r>   16.3352    0.0000 </r>
       <r>   16.9779    0.0000 </r>
       <r>   17.0495    0.0000 </r>
      </set>
      <set comment="kpoint 35">
       <r>  -11.7455    1.0000 </r>
       <r>  -11.7127    1.0000 </r>
       <r>  -11.6992    1.0000 </r>
       <r>  -11.6930    1.0000 </r>
       <r>  -11.6817    1.0000 </r>
       <r>   -4.9825    1.0000 </r>
       <r>   -2.8022    1.0000 </r>
       <r>    1.3864    1.0000 </r>
       <r>    1.7904    1.0000 </r>
       <r>    4.4765    1.0000 </r>
       <r>    6.9538    0.0000 </r>
       <r>    9.8371    0.0000 </r>
       <r>   10.4529    0.0000 </r>
       <r>   11.2089    0.0000 </r>
       <r>   12.2466    0.0000 </r>
       <r>   15.8487    0.0000 </r>
       <r>   15.9743    0.0000 </r>
       <r>   16.0112    0.0000 </r>
       <r>   17.1892    0.0000 </r>
       <r>   17.2750    0.0000 </r>
      </set>
      <set comment="kpoint 36">
       <r>  -11.7459    1.0000 </r>
       <r>  -11.7122    1.0000 </r>
       <r>  -11.7005    1.0000 </r>
       <r>  -11.6914    1.0000 </r>
       <r>  -11.6821    1.0000 </r>
       <r>   -4.9946    1.0000 </r>
       <r>   -2.7971    1.0000 </r>
       <r>    1.3286    1.0000 </r>
       <r>    1.9756    1.0000 </r>
       <r>    4.2314    1.0000 </r>
       <r>    7.2237    0.0000 </r>
       <r>    9.6484    0.0000 </r>
       <r>   10.5582    0.0000 </r>
       <r>   10.9177    0.0000 </r>
       <r>   12.5375    0.0000 </r>
       <r>   15.5740    0.0000 </r>
       <r>   15.8579    0.0000 </r>
       <r>   16.1378    0.0000 </r>
       <r>   17.4293    0.0000 </r>
       <r>   17.5498    0.0000 </r>
      </set>
      <set comment="kpoint 37">
       <r>  -11.7463    1.0000 </r>
       <r>  -11.7117    1.0000 </r>
       <r>  -11.7015    1.0000 </r>
       <r>  -11.6899    1.0000 </r>
       <r>  -11.6826    1.0000 </r>
       <r>   -5.0066    1.0000 </r>
       <r>   -2.7927    1.0000 </r>
       <r>    1.2832    1.0000 </r>
       <r>    2.1947    1.0000 </r>
       <r>    3.9456    1.0000 </r>
       <r>    7.5443    0.0000 </r>
       <r>    9.4473    0.0000 </r>
       <r>   10.6355    0.0000 </r>
       <r>   10.6405    0.0000 </r>
       <r>   12.8509    0.0000 </r>
       <r>   15.1629    0.0000 </r>
       <r>   15.8452    0.0000 </r>
       <r>   16.3492    0.0000 </r>
       <r>   17.6828    0.0000 </r>
       <r>   17.8504    0.0000 </r>
      </set>
      <set comment="kpoint 38">
       <r>  -11.7467    1.0000 </r>
       <r>  -11.7112    1.0000 </r>
       <r>  -11.7023    1.0000 </r>
       <r>  -11.6886    1.0000 </r>
       <r>  -11.6833    1.0000 </r>
       <r>   -5.0166    1.0000 </r>
       <r>   -2.7896    1.0000 </r>
       <r>    1.2505    1.0000 </r>
       <r>    2.4428    1.0000 </r>
       <r>    3.6413    1.0000 </r>
       <r>    7.8920    0.0000 </r>
       <r>    9.2173    0.0000 </r>
       <r>   10.4001    0.0000 </r>
       <r>   10.6993    0.0000 </r>
       <r>   13.1843    0.0000 </r>
       <r>   14.7547    0.0000 </r>
       <r>   15.8283    0.0000 </r>
       <r>   16.6098    0.0000 </r>
       <r>   17.9400    0.0000 </r>
       <r>   18.1399    0.0000 </r>
      </set>
      <set comment="kpoint 39">
       <r>  -11.7470    1.0000 </r>
       <r>  -11.7109    1.0000 </r>
       <r>  -11.7027    1.0000 </r>
       <r>  -11.6875    1.0000 </r>
       <r>  -11.6839    1.0000 </r>
       <r>   -5.0232    1.0000 </r>
       <r>   -2.7877    1.0000 </r>
       <r>    1.2307    1.0000 </r>
       <r>    2.7120    1.0000 </r>
       <r>    3.3355    1.0000 </r>
       <r>    8.2457    0.0000 </r>
       <r>    8.9448    0.0000 </r>
       <r>   10.2471    0.0000 </r>
       <r>   10.7345    0.0000 </r>
       <r>   13.5287    0.0000 </r>
       <r>   14.3637    0.0000 </r>
       <r>   15.8161    0.0000 </r>
       <r>   16.8689    0.0000 </r>
       <r>   18.0725    0.0000 </r>
       <r>   18.1741    0.0000 </r>
      </set>
      <set comment="kpoint 40">
       <r>  -11.7471    1.0000 </r>
       <r>  -11.7108    1.0000 </r>
       <r>  -11.7029    1.0000 </r>
       <r>  -11.6870    1.0000 </r>
       <r>  -11.6843    1.0000 </r>
       <r>   -5.0254    1.0000 </r>
       <r>   -2.7871    1.0000 </r>
       <r>    1.2241    1.0000 </r>
       <r>    2.9334    1.0000 </r>
       <r>    3.1015    1.0000 </r>
       <r>    8.5182    0.0000 </r>
       <r>    8.7003    0.0000 </r>
       <r>   10.1950    0.0000 </r>
       <r>   10.7462    0.0000 </r>
       <r>   13.7795    0.0000 </r>
       <r>   14.0972    0.0000 </r>
       <r>   15.8117    0.0000 </r>
       <r>   17.0008    0.0000 </r>
       <r>   17.9267    0.0000 </r>
       <r>   18.2881    0.0000 </r>
      </set>
      <set comment="kpoint 41">
       <r>  -11.7471    1.0000 </r>
       <r>  -11.7108    1.0000 </r>
       <r>  -11.7029    1.0000 </r>
       <r>  -11.6870    1.0000 </r>
       <r>  -11.6843    1.0000 </r>
       <r>   -5.0254    1.0000 </r>
       <r>   -2.7871    1.0000 </r>
       <r>    1.2241    1.0000 </r>
       <r>    2.9334    1.0000 </r>
       <r>    3.1015    1.0000 </r>
       <r>    8.5182    0.0000 </r>
       <r>    8.7003    0.0000 </r>
       <r>   10.1950    0.0000 </r>
       <r>   10.7462    0.0000 </r>
       <r>   13.7795    0.0000 </r>
       <r>   14.0972    0.0000 </r>
       <r>   15.8117    0.0000 </r>
       <r>   17.0008    0.0000 </r>
       <r>   17.9277    0.0000 </r>
       <r>   18.2916    0.0000 </r>
      </set>
      <set comment="kpoint 42">
       <r>  -11.7441    1.0000 </r>
       <r>  -11.7126    1.0000 </r>
       <r>  -11.7011    1.0000 </r>
       <r>  -11.6884    1.0000 </r>
       <r>  -11.6851    1.0000 </r>
       <r>   -5.0292    1.0000 </r>
       <r>   -2.8799    1.0000 </r>
       <r>    1.3310    1.0000 </r>
       <r>    3.0719    1.0000 </r>
       <r>    3.2684    1.0000 </r>
       <r>    8.2488    0.0000 </r>
       <r>    8.3815    0.0000 </r>
       <r>   10.5651    0.0000 </r>
       <r>   10.5800    0.0000 </r>
       <r>   13.4680    0.0000 </r>
       <r>   13.7998    0.0000 </r>
       <r>   15.5579    0.0000 </r>
       <r>   17.4178    0.0000 </r>
       <r>   18.2080    0.0000 </r>
       <r>   18.4613    0.0000 </r>
      </set>
      <set comment="kpoint 43">
       <r>  -11.7410    1.0000 </r>
       <r>  -11.7143    1.0000 </r>
       <r>  -11.6992    1.0000 </r>
       <r>  -11.6899    1.0000 </r>
       <r>  -11.6860    1.0000 </r>
       <r>   -5.0509    1.0000 </r>
       <r>   -2.9469    1.0000 </r>
       <r>    1.4499    1.0000 </r>
       <r>    3.2245    1.0000 </r>
       <r>    3.4475    1.0000 </r>
       <r>    7.9649    0.0000 </r>
       <r>    8.0694    0.0000 </r>
       <r>   10.4083    0.0000 </r>
       <r>   10.9932    0.0000 </r>
       <r>   13.1659    0.0000 </r>
       <r>   13.5166    0.0000 </r>
       <r>   15.3079    0.0000 </r>
       <r>   17.8152    0.0000 </r>
       <r>   18.1731    0.0000 </r>
       <r>   18.6169    0.0000 </r>
      </set>
      <set comment="kpoint 44">
       <r>  -11.7379    1.0000 </r>
       <r>  -11.7159    1.0000 </r>
       <r>  -11.6974    1.0000 </r>
       <r>  -11.6914    1.0000 </r>
       <r>  -11.6870    1.0000 </r>
       <r>   -5.0947    1.0000 </r>
       <r>   -2.9805    1.0000 </r>
       <r>    1.5801    1.0000 </r>
       <r>    3.3890    1.0000 </r>
       <r>    3.6375    1.0000 </r>
       <r>    7.6800    0.0000 </r>
       <r>    7.7699    0.0000 </r>
       <r>   10.2352    0.0000 </r>
       <r>   11.4655    0.0000 </r>
       <r>   12.8743    0.0000 </r>
       <r>   13.2477    0.0000 </r>
       <r>   15.0667    0.0000 </r>
       <r>   17.8609    0.0000 </r>
       <r>   18.1791    0.0000 </r>
       <r>   18.7758    0.0000 </r>
      </set>
      <set comment="kpoint 45">
       <r>  -11.7349    1.0000 </r>
       <r>  -11.7174    1.0000 </r>
       <r>  -11.6958    1.0000 </r>
       <r>  -11.6929    1.0000 </r>
       <r>  -11.6881    1.0000 </r>
       <r>   -5.1623    1.0000 </r>
       <r>   -2.9766    1.0000 </r>
       <r>    1.7205    1.0000 </r>
       <r>    3.5622    1.0000 </r>
       <r>    3.8367    1.0000 </r>
       <r>    7.4021    0.0000 </r>
       <r>    7.4886    0.0000 </r>
       <r>   10.0642    0.0000 </r>
       <r>   11.9726    0.0000 </r>
       <r>   12.5941    0.0000 </r>
       <r>   12.9933    0.0000 </r>
       <r>   14.8380    0.0000 </r>
       <r>   17.3863    0.0000 </r>
       <r>   18.5054    0.0000 </r>
       <r>   18.9294    0.0000 </r>
      </set>
      <set comment="kpoint 46">
       <r>  -11.7320    1.0000 </r>
       <r>  -11.7187    1.0000 </r>
       <r>  -11.6944    1.0000 </r>
       <r>  -11.6943    1.0000 </r>
       <r>  -11.6892    1.0000 </r>
       <r>   -5.2518    1.0000 </r>
       <r>   -2.9348    1.0000 </r>
       <r>    1.8699    1.0000 </r>
       <r>    3.7394    1.0000 </r>
       <r>    4.0431    1.0000 </r>
       <r>    7.1367    0.0000 </r>
       <r>    7.2318    0.0000 </r>
       <r>    9.8987    0.0000 </r>
       <r>   12.3265    0.0000 </r>
       <r>   12.5052    0.0000 </r>
       <r>   12.7535    0.0000 </r>
       <r>   14.6261    0.0000 </r>
       <r>   16.8426    0.0000 </r>
       <r>   18.7964    0.0000 </r>
       <r>   19.0619    0.0000 </r>
      </set>
      <set comment="kpoint 47">
       <r>  -11.7292    1.0000 </r>
       <r>  -11.7196    1.0000 </r>
       <r>  -11.6957    1.0000 </r>
       <r>  -11.6933    1.0000 </r>
       <r>  -11.6904    1.0000 </r>
       <r>   -5.3591    1.0000 </r>
       <r>   -2.8580    1.0000 </r>
       <r>    2.0269    1.0000 </r>
       <r>    3.9142    1.0000 </r>
       <r>    4.2529    1.0000 </r>
       <r>    6.8897    0.0000 </r>
       <r>    7.0072    0.0000 </r>
       <r>    9.7415    0.0000 </r>
       <r>   12.0728    0.0000 </r>
       <r>   12.5284    0.0000 </r>
       <r>   13.0471    0.0000 </r>
       <r>   14.4409    0.0000 </r>
       <r>   16.2774    0.0000 </r>
       <r>   19.0406    0.0000 </r>
       <r>   19.0619    0.0000 </r>
      </set>
      <set comment="kpoint 48">
       <r>  -11.7266    1.0000 </r>
       <r>  -11.7203    1.0000 </r>
       <r>  -11.6969    1.0000 </r>
       <r>  -11.6925    1.0000 </r>
       <r>  -11.6916    1.0000 </r>
       <r>   -5.4786    1.0000 </r>
       <r>   -2.7508    1.0000 </r>
       <r>    2.1899    1.0000 </r>
       <r>    4.0770    1.0000 </r>
       <r>    4.4592    1.0000 </r>
       <r>    6.6693    0.0000 </r>
       <r>    6.8251    0.0000 </r>
       <r>    9.5954    0.0000 </r>
       <r>   11.8343    0.0000 </r>
       <r>   12.3179    0.0000 </r>
       <r>   13.5443    0.0000 </r>
       <r>   14.3258    0.0000 </r>
       <r>   15.7181    0.0000 </r>
       <r>   18.6538    0.0000 </r>
       <r>   19.0903    0.0000 </r>
      </set>
      <set comment="kpoint 49">
       <r>  -11.7242    1.0000 </r>
       <r>  -11.7206    1.0000 </r>
       <r>  -11.6980    1.0000 </r>
       <r>  -11.6927    1.0000 </r>
       <r>  -11.6921    1.0000 </r>
       <r>   -5.6050    1.0000 </r>
       <r>   -2.6180    1.0000 </r>
       <r>    2.3570    1.0000 </r>
       <r>    4.2153    1.0000 </r>
       <r>    4.6493    1.0000 </r>
       <r>    6.4890    0.0000 </r>
       <r>    6.6984    0.0000 </r>
       <r>    9.4625    0.0000 </r>
       <r>   11.6123    0.0000 </r>
       <r>   12.1222    0.0000 </r>
       <r>   13.7768    0.0000 </r>
       <r>   14.4619    0.0000 </r>
       <r>   15.2069    0.0000 </r>
       <r>   18.0941    0.0000 </r>
       <r>   18.6922    0.0000 </r>
      </set>
      <set comment="kpoint 50">
       <r>  -11.7220    1.0000 </r>
       <r>  -11.7206    1.0000 </r>
       <r>  -11.6990    1.0000 </r>
       <r>  -11.6939    1.0000 </r>
       <r>  -11.6921    1.0000 </r>
       <r>   -5.7335    1.0000 </r>
       <r>   -2.4647    1.0000 </r>
       <r>    2.5262    1.0000 </r>
       <r>    4.3150    1.0000 </r>
       <r>    4.8006    1.0000 </r>
       <r>    6.3718    0.0000 </r>
       <r>    6.6412    0.0000 </r>
       <r>    9.3447    0.0000 </r>
       <r>   11.4085    0.0000 </r>
       <r>   11.9411    0.0000 </r>
       <r>   13.7085    0.0000 </r>
       <r>   14.4790    0.0000 </r>
       <r>   15.1413    0.0000 </r>
       <r>   17.5069    0.0000 </r>
       <r>   18.1466    0.0000 </r>
      </set>
      <set comment="kpoint 51">
       <r>  -11.7204    1.0000 </r>
       <r>  -11.7201    1.0000 </r>
       <r>  -11.6998    1.0000 </r>
       <r>  -11.6951    1.0000 </r>
       <r>  -11.6925    1.0000 </r>
       <r>   -5.8603    1.0000 </r>
       <r>   -2.2950    1.0000 </r>
       <r>    2.6952    1.0000 </r>
       <r>    4.3654    1.0000 </r>
       <r>    4.8817    1.0000 </r>
       <r>    6.3488    0.0000 </r>
       <r>    6.6639    0.0000 </r>
       <r>    9.2437    0.0000 </r>
       <r>   11.2246    0.0000 </r>
       <r>   11.7747    0.0000 </r>
       <r>   13.5708    0.0000 </r>
       <r>   14.0356    0.0000 </r>
       <r>   15.5965    0.0000 </r>
       <r>   16.9229    0.0000 </r>
       <r>   17.5728    0.0000 </r>
      </set>
      <set comment="kpoint 52">
       <r>  -11.7199    1.0000 </r>
       <r>  -11.7183    1.0000 </r>
       <r>  -11.7005    1.0000 </r>
       <r>  -11.6962    1.0000 </r>
       <r>  -11.6932    1.0000 </r>
       <r>   -5.9824    1.0000 </r>
       <r>   -2.1134    1.0000 </r>
       <r>    2.8614    1.0000 </r>
       <r>    4.3654    1.0000 </r>
       <r>    4.8738    1.0000 </r>
       <r>    6.4387    0.0000 </r>
       <r>    6.7670    0.0000 </r>
       <r>    9.1603    0.0000 </r>
       <r>   11.0626    0.0000 </r>
       <r>   11.6230    0.0000 </r>
       <r>   13.3895    0.0000 </r>
       <r>   13.6079    0.0000 </r>
       <r>   15.9631    0.0000 </r>
       <r>   16.3520    0.0000 </r>
       <r>   16.9977    0.0000 </r>
      </set>
      <set comment="kpoint 53">
       <r>  -11.7191    1.0000 </r>
       <r>  -11.7168    1.0000 </r>
       <r>  -11.7011    1.0000 </r>
       <r>  -11.6973    1.0000 </r>
       <r>  -11.6942    1.0000 </r>
       <r>   -6.0976    1.0000 </r>
       <r>   -1.9237    1.0000 </r>
       <r>    3.0221    1.0000 </r>
       <r>    4.3248    1.0000 </r>
       <r>    4.7915    1.0000 </r>
       <r>    6.6262    0.0000 </r>
       <r>    6.9396    0.0000 </r>
       <r>    9.0951    0.0000 </r>
       <r>   10.9248    0.0000 </r>
       <r>   11.4859    0.0000 </r>
       <r>   13.0449    0.0000 </r>
       <r>   13.3742    0.0000 </r>
       <r>   15.7990    0.0000 </r>
       <r>   15.9856    0.0000 </r>
       <r>   16.4307    0.0000 </r>
      </set>
      <set comment="kpoint 54">
       <r>  -11.7182    1.0000 </r>
       <r>  -11.7155    1.0000 </r>
       <r>  -11.7015    1.0000 </r>
       <r>  -11.6983    1.0000 </r>
       <r>  -11.6954    1.0000 </r>
       <r>   -6.2039    1.0000 </r>
       <r>   -1.7302    1.0000 </r>
       <r>    3.1745    1.0000 </r>
       <r>    4.2578    1.0000 </r>
       <r>    4.6652    1.0000 </r>
       <r>    6.8802    0.0000 </r>
       <r>    7.1655    0.0000 </r>
       <r>    9.0474    0.0000 </r>
       <r>   10.8140    0.0000 </r>
       <r>   11.3633    0.0000 </r>
       <r>   12.6430    0.0000 </r>
       <r>   13.2410    0.0000 </r>
       <r>   15.2675    0.0000 </r>
       <r>   15.6617    0.0000 </r>
       <r>   15.8778    0.0000 </r>
      </set>
      <set comment="kpoint 55">
       <r>  -11.7172    1.0000 </r>
       <r>  -11.7145    1.0000 </r>
       <r>  -11.7018    1.0000 </r>
       <r>  -11.6992    1.0000 </r>
       <r>  -11.6967    1.0000 </r>
       <r>   -6.3001    1.0000 </r>
       <r>   -1.5374    1.0000 </r>
       <r>    3.3159    1.0000 </r>
       <r>    4.1781    1.0000 </r>
       <r>    4.5192    1.0000 </r>
       <r>    7.1753    0.0000 </r>
       <r>    7.4285    0.0000 </r>
       <r>    9.0158    0.0000 </r>
       <r>   10.7331    0.0000 </r>
       <r>   11.2553    0.0000 </r>
       <r>   12.2670    0.0000 </r>
       <r>   13.1306    0.0000 </r>
       <r>   14.7607    0.0000 </r>
       <r>   15.1916    0.0000 </r>
       <r>   15.3439    0.0000 </r>
      </set>
      <set comment="kpoint 56">
       <r>  -11.7161    1.0000 </r>
       <r>  -11.7137    1.0000 </r>
       <r>  -11.7021    1.0000 </r>
       <r>  -11.7000    1.0000 </r>
       <r>  -11.6980    1.0000 </r>
       <r>   -6.3852    1.0000 </r>
       <r>   -1.3503    1.0000 </r>
       <r>    3.4435    1.0000 </r>
       <r>    4.0959    1.0000 </r>
       <r>    4.3687    1.0000 </r>
       <r>    7.4947    0.0000 </r>
       <r>    7.7141    0.0000 </r>
       <r>    8.9977    0.0000 </r>
       <r>   10.6851    0.0000 </r>
       <r>   11.1618    0.0000 </r>
       <r>   11.9295    0.0000 </r>
       <r>   13.0336    0.0000 </r>
       <r>   14.2826    0.0000 </r>
       <r>   14.6860    0.0000 </r>
       <r>   14.8347    0.0000 </r>
      </set>
      <set comment="kpoint 57">
       <r>  -11.7151    1.0000 </r>
       <r>  -11.7131    1.0000 </r>
       <r>  -11.7022    1.0000 </r>
       <r>  -11.7007    1.0000 </r>
       <r>  -11.6993    1.0000 </r>
       <r>   -6.4582    1.0000 </r>
       <r>   -1.1746    1.0000 </r>
       <r>    3.5552    1.0000 </r>
       <r>    4.0183    1.0000 </r>
       <r>    4.2235    1.0000 </r>
       <r>    7.8257    0.0000 </r>
       <r>    8.0090    0.0000 </r>
       <r>    8.9897    0.0000 </r>
       <r>   10.6721    0.0000 </r>
       <r>   11.0827    0.0000 </r>
       <r>   11.6350    0.0000 </r>
       <r>   12.9460    0.0000 </r>
       <r>   13.8378    0.0000 </r>
       <r>   14.1913    0.0000 </r>
       <r>   14.3574    0.0000 </r>
      </set>
      <set comment="kpoint 58">
       <r>  -11.7142    1.0000 </r>
       <r>  -11.7127    1.0000 </r>
       <r>  -11.7023    1.0000 </r>
       <r>  -11.7013    1.0000 </r>
       <r>  -11.7004    1.0000 </r>
       <r>   -6.5187    1.0000 </r>
       <r>   -1.0168    1.0000 </r>
       <r>    3.6488    1.0000 </r>
       <r>    3.9501    1.0000 </r>
       <r>    4.0913    1.0000 </r>
       <r>    8.1554    0.0000 </r>
       <r>    8.2989    0.0000 </r>
       <r>    8.9881    0.0000 </r>
       <r>   10.6938    0.0000 </r>
       <r>   11.0181    0.0000 </r>
       <r>   11.3863    0.0000 </r>
       <r>   12.8614    0.0000 </r>
       <r>   13.4331    0.0000 </r>
       <r>   13.7381    0.0000 </r>
       <r>   13.9222    0.0000 </r>
      </set>
      <set comment="kpoint 59">
       <r>  -11.7134    1.0000 </r>
       <r>  -11.7124    1.0000 </r>
       <r>  -11.7024    1.0000 </r>
       <r>  -11.7018    1.0000 </r>
       <r>  -11.7013    1.0000 </r>
       <r>   -6.5662    1.0000 </r>
       <r>   -0.8836    1.0000 </r>
       <r>    3.7230    1.0000 </r>
       <r>    3.8944    1.0000 </r>
       <r>    3.9789    1.0000 </r>
       <r>    8.4669    0.0000 </r>
       <r>    8.5664    0.0000 </r>
       <r>    8.9896    0.0000 </r>
       <r>   10.7455    0.0000 </r>
       <r>   10.9679    0.0000 </r>
       <r>   11.1853    0.0000 </r>
       <r>   12.7648    0.0000 </r>
       <r>   13.0789    0.0000 </r>
       <r>   13.3637    0.0000 </r>
       <r>   13.5437    0.0000 </r>
      </set>
      <set comment="kpoint 60">
       <r>  -11.7128    1.0000 </r>
       <r>  -11.7123    1.0000 </r>
       <r>  -11.7024    1.0000 </r>
       <r>  -11.7022    1.0000 </r>
       <r>  -11.7019    1.0000 </r>
       <r>   -6.6003    1.0000 </r>
       <r>   -0.7820    1.0000 </r>
       <r>    3.7766    1.0000 </r>
       <r>    3.8534    1.0000 </r>
       <r>    3.8928    1.0000 </r>
       <r>    8.7353    0.0000 </r>
       <r>    8.7891    0.0000 </r>
       <r>    8.9917    0.0000 </r>
       <r>   10.8144    0.0000 </r>
       <r>   10.9320    0.0000 </r>
       <r>   11.0340    0.0000 </r>
       <r>   12.6337    0.0000 </r>
       <r>   12.7917    0.0000 </r>
       <r>   13.1176    0.0000 </r>
       <r>   13.2427    0.0000 </r>
      </set>
      <set comment="kpoint 61">
       <r>  -11.7124    1.0000 </r>
       <r>  -11.7123    1.0000 </r>
       <r>  -11.7024    1.0000 </r>
       <r>  -11.7024    1.0000 </r>
       <r>  -11.7023    1.0000 </r>
       <r>   -6.6208    1.0000 </r>
       <r>   -0.7181    1.0000 </r>
       <r>    3.8090    1.0000 </r>
       <r>    3.8283    1.0000 </r>
       <r>    3.8384    1.0000 </r>
       <r>    8.9244    0.0000 </r>
       <r>    8.9400    0.0000 </r>
       <r>    8.9933    0.0000 </r>
       <r>   10.8772    0.0000 </r>
       <r>   10.9105    0.0000 </r>
       <r>   10.9373    0.0000 </r>
       <r>   12.4965    0.0000 </r>
       <r>   12.5974    0.0000 </r>
       <r>   13.0055    0.0000 </r>
       <r>   13.0452    0.0000 </r>
      </set>
      <set comment="kpoint 62">
       <r>  -11.7123    1.0000 </r>
       <r>  -11.7123    1.0000 </r>
       <r>  -11.7024    1.0000 </r>
       <r>  -11.7024    1.0000 </r>
       <r>  -11.7024    1.0000 </r>
       <r>   -6.6277    1.0000 </r>
       <r>   -0.6962    1.0000 </r>
       <r>    3.8199    1.0000 </r>
       <r>    3.8199    1.0000 </r>
       <r>    3.8199    1.0000 </r>
       <r>    8.9939    0.0000 </r>
       <r>    8.9939    0.0000 </r>
       <r>    8.9939    0.0000 </r>
       <r>   10.9033    0.0000 </r>
       <r>   10.9033    0.0000 </r>
       <r>   10.9033    0.0000 </r>
       <r>   12.4381    0.0000 </r>
       <r>   12.5272    0.0000 </r>
       <r>   12.9759    0.0000 </r>
       <r>   12.9759    0.0000 </r>
      </set>
      <set comment="kpoint 63">
       <r>  -11.7123    1.0000 </r>
       <r>  -11.7123    1.0000 </r>
       <r>  -11.7024    1.0000 </r>
       <r>  -11.7024    1.0000 </r>
       <r>  -11.7024    1.0000 </r>
       <r>   -6.6277    1.0000 </r>
       <r>   -0.6962    1.0000 </r>
       <r>    3.8199    1.0000 </r>
       <r>    3.8199    1.0000 </r>
       <r>    3.8199    1.0000 </r>
       <r>    8.9939    0.0000 </r>
[...]
       </set>
       <set comment="band 16">
        <r>  0.0000  0.0000  0.0000  0.0000  0.0388  0.0129  0.0581  0.0258  0.0194 </r>
        <r>  0.0000  0.0000  0.0000  0.0000  0.0059  0.0020  0.0089  0.0040  0.0030 </r>
       </set>
       <set comment="band 17">
        <r>  0.0000  0.0000  0.0074  0.0222  0.1430  0.0477  0.0536  0.0238  0.0179 </r>
        <r>  0.0000  0.0000  0.0060  0.0180  0.0589  0.0196  0.0221  0.0098  0.0074 </r>
       </set>
       <set comment="band 18">
        <r>  0.0165  0.0309  0.0116  0.0039  0.0244  0.0731  0.0100  0.0476  0.0061 </r>
        <r>  0.1305  0.0049  0.0018  0.0006  0.0001  0.0003  0.0000  0.0000  0.0000 </r>
       </set>
       <set comment="band 19">
        <r>  0.1042  0.0019  0.0007  0.0002  0.0054  0.0157  0.0023  0.0128  0.0021 </r>
        <r>  0.0004  0.0384  0.0145  0.0046  0.0163  0.0491  0.0063  0.0268  0.0026 </r>
       </set>
       <set comment="band 20">
        <r>  0.0000  0.0066  0.0109  0.0038  0.0091  0.0229  0.1189  0.0492  0.1028 </r>
        <r>  0.0000  0.0070  0.0103  0.0033  0.0000  0.0000  0.0002  0.0001  0.0002 </r>
       </set>
      </set>
      <set comment="kpoint 134">
       <set comment="band 1">
        <r>  0.0053  0.0000  0.0000  0.0000  0.0000  0.0000  0.0000  0.0000  0.0000 </r>
        <r>  0.0000  0.0000  0.0000  0.0000  0.1574  0.4722  0.0603  0.2519  0.0237 </r>
       </set>
       <set comment="band 2">
        <r>  0.0000  0.0000  0.0000  0.0000  0.0000  0.0000  0.0000  0.0000  0.0000 </r>
        <r>  0.0000  0.0000  0.0000  0.0000  0.0578  0.1734  0.0000  0.3150  0.4305 </r>
       </set>
       <set comment="band 3">
        <r>  0.0000  0.0000  0.0000  0.0001  0.0001  0.0000  0.0000  0.0000  0.0000 </r>
        <r>  0.0000  0.0000  0.0000  0.0000  0.4889  0.1630  0.1834  0.0815  0.0611 </r>
       </set>
       <set comment="band 4">
        <r>  0.0000  0.0000  0.0000  0.0000  0.0000  0.0000  0.0000  0.0000  0.0000 </r>
        <r>  0.0000  0.0000  0.0000  0.0000  0.0272  0.0817  0.3675  0.1634  0.3404 </r>
       </set>
       <set comment="band 5">
        <r>  0.0000  0.0000  0.0000  0.0000  0.0000  0.0000  0.0000  0.0000  0.0000 </r>
        <r>  0.0000  0.0000  0.0000  0.0000  0.2451  0.0817  0.3677  0.1633  0.1225 </r>
       </set>
       <set comment="band 6">
        <r>  0.6159  0.0000  0.0000  0.0000  0.0000  0.0001  0.0000  0.0001  0.0000 </r>
        <r>  0.0547  0.0008  0.0003  0.0001  0.0029  0.0086  0.0011  0.0043  0.0004 </r>
       </set>
       <set comment="band 7">
        <r>  0.0744  0.0042  0.0016  0.0005  0.0007  0.0020  0.0002  0.0009  0.0001 </r>
        <r>  0.6423  0.0007  0.0003  0.0001  0.0002  0.0006  0.0001  0.0002  0.0000 </r>
       </set>
       <set comment="band 8">
        <r>  0.0000  0.0754  0.1131  0.0377  0.0000  0.0000  0.0000  0.0000  0.0000 </r>
        <r>  0.0000  0.0419  0.0628  0.0209  0.0000  0.0000  0.0001  0.0001  0.0001 </r>
       </set>
       <set comment="band 9">
        <r>  0.0000  0.0000  0.0759  0.2276  0.0002  0.0001  0.0001  0.0000  0.0000 </r>
        <r>  0.0000  0.0000  0.0312  0.0935  0.0006  0.0002  0.0002  0.0001  0.0001 </r>
       </set>
       <set comment="band 10">
        <r>  0.0054  0.1934  0.0725  0.0242  0.0000  0.0001  0.0000  0.0005  0.0002 </r>
        <r>  0.0165  0.0818  0.0307  0.0102  0.0000  0.0001  0.0000  0.0009  0.0005 </r>
       </set>
       <set comment="band 11">
        <r>  0.0004  0.0231  0.0086  0.0029  0.0033  0.0100  0.0000  0.0216  0.0283 </r>
        <r>  0.0007  0.0038  0.0014  0.0005  0.0031  0.0094  0.0000  0.0152  0.0214 </r>
       </set>
       <set comment="band 12">
        <r>  0.0000  0.0000  0.0588  0.1763  0.0061  0.0020  0.0023  0.0010  0.0008 </r>
        <r>  0.0000  0.0000  0.0876  0.2629  0.0031  0.0010  0.0012  0.0005  0.0004 </r>
       </set>
       <set comment="band 13">
        <r>  0.0124  0.1365  0.0512  0.0171  0.0008  0.0024  0.0001  0.0000  0.0006 </r>
        <r>  0.0102  0.2274  0.0853  0.0284  0.0000  0.0000  0.0001  0.0033  0.0028 </r>
       </set>
       <set comment="band 14">
        <r>  0.0000  0.1333  0.2000  0.0667  0.0001  0.0004  0.0017  0.0008  0.0016 </r>
        <r>  0.0000  0.0879  0.1319  0.0440  0.0000  0.0000  0.0000  0.0000  0.0000 </r>
       </set>
       <set comment="band 15">
        <r>  0.0000  0.0003  0.0004  0.0001  0.0023  0.0069  0.0311  0.0138  0.0288 </r>
        <r>  0.0000  0.0588  0.0883  0.0294  0.0005  0.0016  0.0073  0.0032  0.0067 </r>
       </set>
       <set comment="band 16">
        <r>  0.0000  0.0000  0.0000  0.0000  0.0410  0.0137  0.0615  0.0273  0.0205 </r>
        <r>  0.0000  0.0000  0.0000  0.0000  0.0050  0.0017  0.0075  0.0034  0.0025 </r>
       </set>
       <set comment="band 17">
        <r>  0.0000  0.0000  0.0049  0.0146  0.1447  0.0482  0.0543  0.0241  0.0181 </r>
        <r>  0.0000  0.0000  0.0043  0.0128  0.0623  0.0208  0.0234  0.0104  0.0078 </r>
       </set>
       <set comment="band 18">
        <r>  0.0537  0.0215  0.0080  0.0027  0.0177  0.0529  0.0069  0.0304  0.0032 </r>
        <r>  0.1336  0.0093  0.0035  0.0012  0.0022  0.0067  0.0008  0.0028  0.0002 </r>
       </set>
       <set comment="band 19">
        <r>  0.0751  0.0007  0.0003  0.0001  0.0143  0.0472  0.0076  0.0302  0.0048 </r>
        <r>  0.0085  0.0240  0.0092  0.0029  0.0143  0.0430  0.0055  0.0238  0.0023 </r>
       </set>
       <set comment="band 20">
        <r>  0.0000  0.0051  0.0077  0.0026  0.0077  0.0248  0.1074  0.0494  0.1023 </r>
        <r>  0.0000  0.0104  0.0156  0.0051  0.0000  0.0000  0.0001  0.0001  0.0001 </r>
       </set>
      </set>
      <set comment="kpoint 135">
       <set comment="band 1">
        <r>  0.0054  0.0000  0.0000  0.0000  0.0000  0.0000  0.0000  0.0000  0.0000 </r>
        <r>  0.0000  0.0000  0.0000  0.0000  0.1593  0.4780  0.0603  0.2459  0.0217 </r>
       </set>
       <set comment="band 2">
        <r>  0.0000  0.0000  0.0000  0.0000  0.0000  0.0000  0.0000  0.0000  0.0000 </r>
        <r>  0.0000  0.0000  0.0000  0.0000  0.0558  0.1674  0.0000  0.3209  0.4325 </r>
       </set>
       <set comment="band 3">
        <r>  0.0000  0.0000  0.0000  0.0000  0.0001  0.0000  0.0000  0.0000  0.0000 </r>
        <r>  0.0000  0.0000  0.0000  0.0000  0.4890  0.1630  0.1834  0.0815  0.0611 </r>
       </set>
       <set comment="band 4">
        <r>  0.0000  0.0000  0.0000  0.0000  0.0000  0.0000  0.0000  0.0000  0.0000 </r>
        <r>  0.0000  0.0000  0.0000  0.0000  0.0272  0.0817  0.3673  0.1635  0.3405 </r>
       </set>
       <set comment="band 5">
        <r>  0.0000  0.0000  0.0000  0.0000  0.0000  0.0000  0.0000  0.0000  0.0000 </r>
        <r>  0.0000  0.0000  0.0000  0.0000  0.2451  0.0816  0.3678  0.1633  0.1224 </r>
       </set>
       <set comment="band 6">
        <r>  0.6093  0.0000  0.0000  0.0000  0.0001  0.0002  0.0000  0.0001  0.0000 </r>
        <r>  0.0609  0.0003  0.0001  0.0000  0.0029  0.0088  0.0011  0.0044  0.0004 </r>
       </set>
       <set comment="band 7">
        <r>  0.0845  0.0020  0.0007  0.0002  0.0007  0.0021  0.0003  0.0010  0.0001 </r>
        <r>  0.6445  0.0004  0.0001  0.0000  0.0002  0.0007  0.0001  0.0003  0.0000 </r>
       </set>
       <set comment="band 8">
        <r>  0.0000  0.0751  0.1126  0.0375  0.0000  0.0000  0.0000  0.0000  0.0000 </r>
        <r>  0.0000  0.0419  0.0628  0.0209  0.0000  0.0000  0.0001  0.0000  0.0000 </r>
       </set>
       <set comment="band 9">
        <r>  0.0000  0.0000  0.0755  0.2265  0.0001  0.0000  0.0000  0.0000  0.0000 </r>
        <r>  0.0000  0.0000  0.0315  0.0946  0.0003  0.0001  0.0001  0.0000  0.0000 </r>
       </set>
       <set comment="band 10">
        <r>  0.0026  0.1971  0.0739  0.0246  0.0000  0.0000  0.0000  0.0002  0.0001 </r>
        <r>  0.0078  0.0834  0.0313  0.0104  0.0000  0.0000  0.0000  0.0004  0.0002 </r>
       </set>
       <set comment="band 11">
        <r>  0.0000  0.0087  0.0032  0.0011  0.0035  0.0106  0.0000  0.0216  0.0287 </r>
        <r>  0.0001  0.0008  0.0003  0.0001  0.0031  0.0093  0.0000  0.0172  0.0234 </r>
       </set>
       <set comment="band 12">
        <r>  0.0000  0.0000  0.0614  0.1843  0.0032  0.0011  0.0012  0.0005  0.0004 </r>
        <r>  0.0000  0.0000  0.0898  0.2694  0.0017  0.0006  0.0006  0.0003  0.0002 </r>
       </set>
       <set comment="band 13">
        <r>  0.0062  0.1565  0.0587  0.0196  0.0003  0.0010  0.0001  0.0000  0.0001 </r>
        <r>  0.0053  0.2376  0.0891  0.0297  0.0000  0.0000  0.0000  0.0013  0.0010 </r>
       </set>
       <set comment="band 14">
        <r>  0.0000  0.1353  0.2030  0.0677  0.0001  0.0002  0.0008  0.0004  0.0007 </r>
        <r>  0.0000  0.0903  0.1354  0.0451  0.0000  0.0000  0.0000  0.0000  0.0000 </r>
       </set>
       <set comment="band 15">
        <r>  0.0000  0.0000  0.0025  0.0074  0.1467  0.0489  0.0550  0.0245  0.0183 </r>
        <r>  0.0000  0.0000  0.0023  0.0068  0.0652  0.0217  0.0245  0.0109  0.0082 </r>
       </set>
       <set comment="band 16">
        <r>  0.0000  0.0008  0.0012  0.0004  0.0023  0.0068  0.0306  0.0136  0.0284 </r>
        <r>  0.0000  0.0571  0.0857  0.0286  0.0004  0.0012  0.0052  0.0023  0.0049 </r>
       </set>
       <set comment="band 17">
        <r>  0.0000  0.0000  0.0000  0.0000  0.0442  0.0148  0.0664  0.0295  0.0221 </r>
        <r>  0.0000  0.0000  0.0000  0.0000  0.0041  0.0014  0.0062  0.0028  0.0021 </r>
       </set>
       <set comment="band 18">
        <r>  0.0742  0.0103  0.0039  0.0013  0.0147  0.0440  0.0056  0.0233  0.0021 </r>
        <r>  0.1328  0.0061  0.0023  0.0008  0.0037  0.0111  0.0014  0.0052  0.0004 </r>
       </set>
       <set comment="band 19">
        <r>  0.0002  0.0032  0.0049  0.0017  0.0079  0.0255  0.1028  0.0475  0.0998 </r>
        <r>  0.0001  0.0127  0.0187  0.0059  0.0001  0.0004  0.0014  0.0008  0.0013 </r>
       </set>
       <set comment="band 20">
        <r>  0.0053  0.0002  0.0001  0.0001  0.0344  0.0325  0.0762  0.0195  0.0261 </r>
        <r>  0.0018  0.0013  0.0004  0.0002  0.0021  0.0028  0.0003  0.0027  0.0001 </r>
       </set>
      </set>
      <set comment="kpoint 136">
       <set comment="band 1">
        <r>  0.0055  0.0000  0.0000  0.0000  0.0000  0.0000  0.0000  0.0000  0.0000 </r>
        <r>  0.0000  0.0000  0.0000  0.0000  0.1605  0.4814  0.0603  0.2424  0.0205 </r>
       </set>
       <set comment="band 2">
        <r>  0.0000  0.0000  0.0000  0.0000  0.0000  0.0000  0.0000  0.0000  0.0000 </r>
        <r>  0.0000  0.0000  0.0000  0.0000  0.0546  0.1639  0.0000  0.3244  0.4337 </r>
       </set>
       <set comment="band 3">
        <r>  0.0000  0.0000  0.0000  0.0000  0.0001  0.0000  0.0000  0.0000  0.0000 </r>
        <r>  0.0000  0.0000  0.0000  0.0000  0.4890  0.1630  0.1834  0.0815  0.0611 </r>
       </set>
       <set comment="band 4">
        <r>  0.0000  0.0000  0.0000  0.0000  0.0000  0.0000  0.0000  0.0000  0.0000 </r>
        <r>  0.0000  0.0000  0.0000  0.0000  0.0269  0.0820  0.3662  0.1640  0.3412 </r>
       </set>
       <set comment="band 5">
        <r>  0.0000  0.0000  0.0000  0.0000  0.0000  0.0000  0.0000  0.0000  0.0000 </r>
        <r>  0.0000  0.0000  0.0000  0.0000  0.2454  0.0814  0.3690  0.1627  0.1217 </r>
       </set>
       <set comment="band 6">
        <r>  0.6052  0.0000  0.0000  0.0000  0.0001  0.0002  0.0000  0.0001  0.0000 </r>
        <r>  0.0646  0.0001  0.0000  0.0000  0.0030  0.0089  0.0011  0.0045  0.0004 </r>
       </set>
       <set comment="band 7">
        <r>  0.0908  0.0005  0.0002  0.0001  0.0007  0.0021  0.0003  0.0010  0.0001 </r>
        <r>  0.6465  0.0001  0.0000  0.0000  0.0003  0.0008  0.0001  0.0004  0.0000 </r>
       </set>
       <set comment="band 8">
        <r>  0.0000  0.0749  0.1123  0.0374  0.0000  0.0000  0.0000  0.0000  0.0000 </r>
        <r>  0.0000  0.0419  0.0629  0.0210  0.0000  0.0000  0.0000  0.0000  0.0000 </r>
       </set>
       <set comment="band 9">
        <r>  0.0000  0.0000  0.0753  0.2258  0.0000  0.0000  0.0000  0.0000  0.0000 </r>
        <r>  0.0000  0.0000  0.0317  0.0952  0.0001  0.0000  0.0000  0.0000  0.0000 </r>
       </set>
       <set comment="band 10">
        <r>  0.0007  0.1996  0.0749  0.0249  0.0000  0.0000  0.0000  0.0001  0.0000 </r>
        <r>  0.0020  0.0845  0.0317  0.0106  0.0000  0.0000  0.0000  0.0001  0.0001 </r>
       </set>
       <set comment="band 11">
        <r>  0.0000  0.0020  0.0007  0.0002  0.0036  0.0108  0.0000  0.0216  0.0288 </r>
        <r>  0.0000  0.0001  0.0000  0.0000  0.0031  0.0092  0.0000  0.0181  0.0243 </r>
       </set>
       <set comment="band 12">
        <r>  0.0000  0.0000  0.0634  0.1903  0.0009  0.0003  0.0003  0.0002  0.0001 </r>
        <r>  0.0000  0.0000  0.0915  0.2746  0.0005  0.0002  0.0002  0.0001  0.0001 </r>
       </set>
       <set comment="band 13">
        <r>  0.0017  0.1675  0.0628  0.0209  0.0001  0.0002  0.0000  0.0000  0.0000 </r>
        <r>  0.0015  0.2437  0.0914  0.0305  0.0000  0.0000  0.0000  0.0003  0.0002 </r>
       </set>
       <set comment="band 14">
        <r>  0.0000  0.1365  0.2048  0.0683  0.0000  0.0000  0.0002  0.0001  0.0002 </r>
        <r>  0.0000  0.0918  0.1376  0.0459  0.0000  0.0000  0.0000  0.0000  0.0000 </r>
       </set>
       <set comment="band 15">
        <r>  0.0000  0.0000  0.0007  0.0020  0.1485  0.0495  0.0557  0.0248  0.0186 </r>
        <r>  0.0000  0.0000  0.0006  0.0019  0.0672  0.0224  0.0252  0.0112  0.0084 </r>
       </set>
       <set comment="band 16">
        <r>  0.0844  0.0027  0.0010  0.0003  0.0136  0.0407  0.0051  0.0206  0.0018 </r>
        <r>  0.1338  0.0018  0.0007  0.0002  0.0043  0.0130  0.0016  0.0064  0.0005 </r>
       </set>
       <set comment="band 17">
        <r>  0.0000  0.0017  0.0026  0.0009  0.0016  0.0048  0.0218  0.0097  0.0201 </r>
        <r>  0.0000  0.0599  0.0898  0.0299  0.0002  0.0006  0.0027  0.0012  0.0025 </r>
       </set>
       <set comment="band 18">
        <r>  0.0000  0.0000  0.0000  0.0000  0.0504  0.0169  0.0757  0.0336  0.0252 </r>
        <r>  0.0000  0.0000  0.0000  0.0000  0.0034  0.0011  0.0050  0.0022  0.0017 </r>
       </set>
       <set comment="band 19">
        <r>  0.0000  0.0015  0.0022  0.0008  0.0085  0.0254  0.1137  0.0502  0.1051 </r>
        <r>  0.0000  0.0099  0.0149  0.0049  0.0003  0.0008  0.0035  0.0016  0.0033 </r>
       </set>
       <set comment="band 20">
        <r>  0.0001  0.0000  0.0000  0.0000  0.0380  0.0150  0.0607  0.0250  0.0203 </r>
        <r>  0.0000  0.0000  0.0000  0.0000  0.0010  0.0002  0.0011  0.0007  0.0004 </r>
       </set>
      </set>
      <set comment="kpoint 137">
       <set comment="band 1">
        <r>  0.0056  0.0000  0.0000  0.0000  0.0000  0.0000  0.0000  0.0000  0.0000 </r>
        <r>  0.0000  0.0000  0.0000  0.0000  0.1608  0.4825  0.0603  0.2412  0.0201 </r>
       </set>
       <set comment="band 2">
        <r>  0.0000  0.0000  0.0000  0.0000  0.0000  0.0000  0.0000  0.0000  0.0000 </r>
        <r>  0.0000  0.0000  0.0000  0.0000  0.0543  0.1628  0.0000  0.3255  0.4340 </r>
       </set>
       <set comment="band 3">
        <r>  0.0000  0.0000  0.0000  0.0000  0.0001  0.0000  0.0000  0.0000  0.0000 </r>
        <r>  0.0000  0.0000  0.0000  0.0000  0.4891  0.1630  0.1834  0.0815  0.0611 </r>
       </set>
       <set comment="band 4">
        <r>  0.0000  0.0000  0.0000  0.0000  0.0000  0.0000  0.0000  0.0000  0.0000 </r>
        <r>  0.0000  0.0000  0.0000  0.0000  0.0059  0.1378  0.1150  0.2756  0.4459 </r>
       </set>
       <set comment="band 5">
        <r>  0.0000  0.0000  0.0000  0.0000  0.0000  0.0000  0.0000  0.0000  0.0000 </r>
        <r>  0.0000  0.0000  0.0000  0.0000  0.2664  0.0256  0.6202  0.0511  0.0171 </r>
       </set>
       <set comment="band 6">
        <r>  0.6039  0.0000  0.0000  0.0000  0.0001  0.0002  0.0000  0.0001  0.0000 </r>
        <r>  0.0658  0.0000  0.0000  0.0000  0.0030  0.0089  0.0011  0.0045  0.0004 </r>
       </set>
       <set comment="band 7">
        <r>  0.0930  0.0000  0.0000  0.0000  0.0007  0.0021  0.0003  0.0011  0.0001 </r>
        <r>  0.6472  0.0000  0.0000  0.0000  0.0003  0.0008  0.0001  0.0004  0.0000 </r>
       </set>
       <set comment="band 8">
        <r>  0.0000  0.0748  0.1122  0.0374  0.0000  0.0000  0.0000  0.0000  0.0000 </r>
        <r>  0.0000  0.0419  0.0629  0.0210  0.0000  0.0000  0.0000  0.0000  0.0000 </r>
       </set>
       <set comment="band 9">
        <r>  0.0000  0.1062  0.0001  0.1945  0.0000  0.0000  0.0000  0.0000  0.0000 </r>
        <r>  0.0000  0.0449  0.0001  0.0823  0.0000  0.0000  0.0000  0.0000  0.0000 </r>
       </set>
       <set comment="band 10">
        <r>  0.0000  0.0943  0.1502  0.0562  0.0000  0.0000  0.0000  0.0000  0.0000 </r>
        <r>  0.0000  0.0399  0.0636  0.0238  0.0000  0.0000  0.0000  0.0000  0.0000 </r>
       </set>
       <set comment="band 11">
        <r>  0.0000  0.0000  0.0000  0.0000  0.0036  0.0108  0.0000  0.0216  0.0288 </r>
        <r>  0.0000  0.0000  0.0000  0.0000  0.0031  0.0092  0.0000  0.0184  0.0245 </r>
       </set>
       <set comment="band 12">
        <r>  0.0000  0.0085  0.0921  0.1561  0.0000  0.0000  0.0000  0.0000  0.0000 </r>
        <r>  0.0000  0.0122  0.1323  0.2243  0.0000  0.0000  0.0000  0.0000  0.0000 </r>
       </set>
       <set comment="band 13">
        <r>  0.0000  0.1626  0.0362  0.0578  0.0000  0.0000  0.0000  0.0000  0.0000 </r>
        <r>  0.0000  0.2337  0.0521  0.0831  0.0000  0.0000  0.0000  0.0000  0.0000 </r>
       </set>
       <set comment="band 14">
        <r>  0.0000  0.1370  0.2054  0.0685  0.0000  0.0000  0.0000  0.0000  0.0000 </r>
        <r>  0.0000  0.0923  0.1384  0.0461  0.0000  0.0000  0.0000  0.0000  0.0000 </r>
       </set>
       <set comment="band 15">
        <r>  0.0000  0.0000  0.0000  0.0000  0.1492  0.0497  0.0560  0.0249  0.0187 </r>
        <r>  0.0000  0.0000  0.0000  0.0000  0.0679  0.0227  0.0255  0.0113  0.0085 </r>
       </set>
       <set comment="band 16">
        <r>  0.0876  0.0000  0.0000  0.0000  0.0132  0.0397  0.0050  0.0199  0.0017 </r>
        <r>  0.1344  0.0000  0.0000  0.0000  0.0045  0.0135  0.0017  0.0068  0.0006 </r>
       </set>
       <set comment="band 17">
        <r>  0.0000  0.0030  0.0044  0.0015  0.0000  0.0000  0.0000  0.0000  0.0000 </r>
        <r>  0.0000  0.0698  0.1049  0.0349  0.0000  0.0000  0.0000  0.0000  0.0000 </r>
       </set>
       <set comment="band 18">
        <r>  0.0000  0.0000  0.0000  0.0000  0.0161  0.0317  0.1271  0.0633  0.1213 </r>
        <r>  0.0000  0.0000  0.0000  0.0000  0.0007  0.0014  0.0057  0.0029  0.0055 </r>
       </set>
       <set comment="band 19">
        <r>  0.0000  0.0000  0.0000  0.0000  0.0835  0.0286  0.1426  0.0560  0.0487 </r>
        <r>  0.0000  0.0000  0.0000  0.0000  0.0038  0.0012  0.0064  0.0026  0.0022 </r>
       </set>
       <set comment="band 20">
        <r>  0.0000  0.0000  0.0000  0.0000  0.0000  0.0000  0.0000  0.0000  0.0000 </r>
        <r>  0.0000  0.0000  0.0000  0.0000  0.0000  0.0000  0.0000  0.0000  0.0000 </r>
       </set>
      </set>
     </set>
    </set>
   </array>
  </projected>
 </calculation>
 <structure name="finalpos" >
  <crystal>
   <varray name="basis" >
    <v>       4.02098700       0.00000000       2.32151800 </v>
    <v>       1.34032900       3.79102300       2.32151800 </v>
    <v>       0.00000000       0.00000000       4.64303600 </v>
   </varray>
   <i name="volume">     70.77683522 </i>
   <varray name="rec_basis" >
    <v>       0.24869516      -0.08792701       0.00000000 </v>
    <v>       0.00000000       0.26378104       0.00000000 </v>
    <v>      -0.12434758      -0.08792701       0.21537632 </v>
   </varray>
  </crystal>
  <varray name="positions" >
   <v>       0.00000000       0.00000000       0.00000000 </v>
   <v>       0.50000000       0.50000000       0.50000000 </v>
  </varray>
 </structure>
</modeling>
