<?xml version="1.0" encoding="ISO-8859-1"?>
<modeling>
 <generator>
  <i name="program" type="string">vasp </i>
  <i name="version" type="string">5.3.3  </i>
  <i name="subversion" type="string">18Dez12 (build May 15 2014 14:41:16) complex                          parallel </i>
  <i name="platform" type="string">LinuxIFC </i>
  <i name="date" type="string">2017 07 23 </i>
  <i name="time" type="string">19:17:17 </i>
 </generator>
 <incar>
  <i type="string" name="SYSTEM"> (Zn S)36  (P1) ~ POSCAR_3x3x2_1 (VASP)</i>
  <i type="int" name="ISTART">     0</i>
  <i type="string" name="PREC">normal</i>
  <i type="string" name="ALGO"> Normal (blocked Davidson)</i>
  <i type="int" name="ISPIN">     1</i>
  <i type="int" name="ICHARG">    11</i>
  <i type="int" name="INIWAV">     1</i>
  <i type="int" name="NELM">    60</i>
  <i type="int" name="NELMIN">     2</i>
  <i type="int" name="IBRION">    -1</i>
  <i name="EDIFF">      0.00001000</i>
  <i name="EDIFFG">     -0.02000000</i>
  <i type="int" name="NSW">     0</i>
  <i name="ENCUT">    520.00000000</i>
  <i type="logical" name="LREAL"> F  </i>
  <i type="int" name="LMAXMIX">     4</i>
  <i type="logical" name="LWAVE"> T  </i>
  <i type="logical" name="LCHARG"> F  </i>
  <i type="logical" name="LORBIT"> F  </i>
  <i type="int" name="NELM">    60</i>
  <i type="logical" name="LDAU"> T  </i>
  <v type="int" name="LDAUTYPE">     2</v>
  <v type="int" name="LDAUL">     2     2</v>
  <v name="LDAUU">      7.00000000      6.00000000</v>
  <v name="LDAUJ">      0.00000000      0.00000000</v>
 </incar>
 <kpoints>
  <generation param="Gamma">
   <v type="int" name="divisions">      23       23       23 </v>
   <v name="usershift">      0.00000000       0.00000000       0.00000000 </v>
   <v name="genvec1">      0.04347826       0.00000000       0.00000000 </v>
   <v name="genvec2">      0.00000000       0.04347826       0.00000000 </v>
   <v name="genvec3">      0.00000000       0.00000000       0.04347826 </v>
   <v name="shift">      0.00000000       0.00000000       0.00000000 </v>
  </generation>
  <varray name="kpointlist" >
   <v>       0.00000000       0.00000000       0.00000000 </v>
   <v>       0.04347826       0.00000000       0.00000000 </v>
   <v>       0.08695652       0.00000000       0.00000000 </v>
   <v>       0.13043478       0.00000000       0.00000000 </v>
   <v>       0.17391304       0.00000000       0.00000000 </v>
   <v>       0.21739130       0.00000000       0.00000000 </v>
   <v>       0.26086957       0.00000000       0.00000000 </v>
   <v>       0.30434783       0.00000000       0.00000000 </v>
   <v>       0.34782609       0.00000000       0.00000000 </v>
   <v>       0.39130435       0.00000000       0.00000000 </v>
   <v>       0.43478261       0.00000000       0.00000000 </v>
   <v>       0.47826087       0.00000000       0.00000000 </v>
   <v>       0.04347826       0.04347826       0.00000000 </v>
   <v>       0.08695652       0.04347826       0.00000000 </v>
   <v>       0.13043478       0.04347826       0.00000000 </v>
   <v>       0.17391304       0.04347826       0.00000000 </v>
   <v>       0.21739130       0.04347826       0.00000000 </v>
   <v>       0.26086957       0.04347826       0.00000000 </v>
   <v>       0.30434783       0.04347826       0.00000000 </v>
   <v>       0.34782609       0.04347826       0.00000000 </v>
   <v>       0.39130435       0.04347826       0.00000000 </v>
   <v>       0.43478261       0.04347826       0.00000000 </v>
   <v>       0.47826087       0.04347826       0.00000000 </v>
   <v>      -0.47826087       0.04347826       0.00000000 </v>
   <v>      -0.43478261       0.04347826       0.00000000 </v>
   <v>      -0.39130435       0.04347826       0.00000000 </v>
   <v>      -0.34782609       0.04347826       0.00000000 </v>
   <v>      -0.30434783       0.04347826       0.00000000 </v>
   <v>      -0.26086957       0.04347826       0.00000000 </v>
   <v>      -0.21739130       0.04347826       0.00000000 </v>
   <v>      -0.17391304       0.04347826       0.00000000 </v>
   <v>      -0.13043478       0.04347826       0.00000000 </v>
   <v>      -0.08695652       0.04347826       0.00000000 </v>
   <v>      -0.04347826       0.04347826       0.00000000 </v>
   <v>       0.08695652       0.08695652       0.00000000 </v>
   <v>       0.13043478       0.08695652       0.00000000 </v>
   <v>       0.17391304       0.08695652       0.00000000 </v>
   <v>       0.21739130       0.08695652       0.00000000 </v>
   <v>       0.26086957       0.08695652       0.00000000 </v>
   <v>       0.30434783       0.08695652       0.00000000 </v>
   <v>       0.34782609       0.08695652       0.00000000 </v>
   <v>       0.39130435       0.08695652       0.00000000 </v>
   <v>       0.43478261       0.08695652       0.00000000 </v>
   <v>       0.47826087       0.08695652       0.00000000 </v>
   <v>      -0.47826087       0.08695652       0.00000000 </v>
   <v>      -0.43478261       0.08695652       0.00000000 </v>
   <v>      -0.39130435       0.08695652       0.00000000 </v>
   <v>      -0.34782609       0.08695652       0.00000000 </v>
   <v>      -0.30434783       0.08695652       0.00000000 </v>
   <v>      -0.26086957       0.08695652       0.00000000 </v>
   <v>      -0.21739130       0.08695652       0.00000000 </v>
   <v>      -0.17391304       0.08695652       0.00000000 </v>
   <v>      -0.13043478       0.08695652       0.00000000 </v>
   <v>      -0.08695652       0.08695652       0.00000000 </v>
   <v>       0.13043478       0.13043478       0.00000000 </v>
   <v>       0.17391304       0.13043478       0.00000000 </v>
   <v>       0.21739130       0.13043478       0.00000000 </v>
   <v>       0.26086957       0.13043478       0.00000000 </v>
   <v>       0.30434783       0.13043478       0.00000000 </v>
   <v>       0.34782609       0.13043478       0.00000000 </v>
   <v>       0.39130435       0.13043478       0.00000000 </v>
   <v>       0.43478261       0.13043478       0.00000000 </v>
   <v>       0.47826087       0.13043478       0.00000000 </v>
   <v>      -0.47826087       0.13043478       0.00000000 </v>
   <v>      -0.43478261       0.13043478       0.00000000 </v>
   <v>      -0.39130435       0.13043478       0.00000000 </v>
   <v>      -0.34782609       0.13043478       0.00000000 </v>
   <v>      -0.30434783       0.13043478       0.00000000 </v>
   <v>      -0.26086957       0.13043478       0.00000000 </v>
   <v>      -0.21739130       0.13043478       0.00000000 </v>
   <v>      -0.17391304       0.13043478       0.00000000 </v>
   <v>      -0.13043478       0.13043478       0.00000000 </v>
   <v>       0.17391304       0.17391304       0.00000000 </v>
   <v>       0.21739130       0.17391304       0.00000000 </v>
   <v>       0.26086957       0.17391304       0.00000000 </v>
   <v>       0.30434783       0.17391304       0.00000000 </v>
   <v>       0.34782609       0.17391304       0.00000000 </v>
   <v>       0.39130435       0.17391304       0.00000000 </v>
   <v>       0.43478261       0.17391304       0.00000000 </v>
   <v>       0.47826087       0.17391304       0.00000000 </v>
   <v>      -0.47826087       0.17391304       0.00000000 </v>
   <v>      -0.43478261       0.17391304       0.00000000 </v>
   <v>      -0.39130435       0.17391304       0.00000000 </v>
   <v>      -0.34782609       0.17391304       0.00000000 </v>
   <v>      -0.30434783       0.17391304       0.00000000 </v>
   <v>      -0.26086957       0.17391304       0.00000000 </v>
   <v>      -0.21739130       0.17391304       0.00000000 </v>
   <v>      -0.17391304       0.17391304       0.00000000 </v>
   <v>       0.21739130       0.21739130       0.00000000 </v>
   <v>       0.26086957       0.21739130       0.00000000 </v>
   <v>       0.30434783       0.21739130       0.00000000 </v>
   <v>       0.34782609       0.21739130       0.00000000 </v>
   <v>       0.39130435       0.21739130       0.00000000 </v>
   <v>       0.43478261       0.21739130       0.00000000 </v>
   <v>       0.47826087       0.21739130       0.00000000 </v>
   <v>      -0.47826087       0.21739130       0.00000000 </v>
   <v>      -0.43478261       0.21739130       0.00000000 </v>
   <v>      -0.39130435       0.21739130       0.00000000 </v>
   <v>      -0.34782609       0.21739130       0.00000000 </v>
   <v>      -0.30434783       0.21739130       0.00000000 </v>
   <v>      -0.26086957       0.21739130       0.00000000 </v>
   <v>      -0.21739130       0.21739130       0.00000000 </v>
   <v>       0.26086957       0.26086957       0.00000000 </v>
   <v>       0.30434783       0.26086957       0.00000000 </v>
   <v>       0.34782609       0.26086957       0.00000000 </v>
   <v>       0.39130435       0.26086957       0.00000000 </v>
   <v>       0.43478261       0.26086957       0.00000000 </v>
   <v>       0.47826087       0.26086957       0.00000000 </v>
   <v>      -0.47826087       0.26086957       0.00000000 </v>
   <v>      -0.43478261       0.26086957       0.00000000 </v>
   <v>      -0.39130435       0.26086957       0.00000000 </v>
   <v>      -0.34782609       0.26086957       0.00000000 </v>
   <v>      -0.30434783       0.26086957       0.00000000 </v>
   <v>      -0.26086957       0.26086957       0.00000000 </v>
   <v>       0.30434783       0.30434783       0.00000000 </v>
   <v>       0.34782609       0.30434783       0.00000000 </v>
   <v>       0.39130435       0.30434783       0.00000000 </v>
   <v>       0.43478261       0.30434783       0.00000000 </v>
   <v>       0.47826087       0.30434783       0.00000000 </v>
   <v>      -0.47826087       0.30434783       0.00000000 </v>
   <v>      -0.43478261       0.30434783       0.00000000 </v>
   <v>      -0.39130435       0.30434783       0.00000000 </v>
   <v>      -0.34782609       0.30434783       0.00000000 </v>
   <v>      -0.30434783       0.30434783       0.00000000 </v>
   <v>       0.34782609       0.34782609       0.00000000 </v>
   <v>       0.39130435       0.34782609       0.00000000 </v>
   <v>       0.43478261       0.34782609       0.00000000 </v>
   <v>       0.47826087       0.34782609       0.00000000 </v>
   <v>      -0.47826087       0.34782609       0.00000000 </v>
   <v>      -0.43478261       0.34782609       0.00000000 </v>
   <v>      -0.39130435       0.34782609       0.00000000 </v>
   <v>      -0.34782609       0.34782609       0.00000000 </v>
   <v>       0.39130435       0.39130435       0.00000000 </v>
   <v>       0.43478261       0.39130435       0.00000000 </v>
   <v>       0.47826087       0.39130435       0.00000000 </v>
   <v>      -0.47826087       0.39130435       0.00000000 </v>
   <v>      -0.43478261       0.39130435       0.00000000 </v>
   <v>      -0.39130435       0.39130435       0.00000000 </v>
   <v>       0.43478261       0.43478261       0.00000000 </v>
   <v>       0.47826087       0.43478261       0.00000000 </v>
   <v>      -0.47826087       0.43478261       0.00000000 </v>
   <v>      -0.43478261       0.43478261       0.00000000 </v>
   <v>       0.47826087       0.47826087       0.00000000 </v>
   <v>      -0.47826087       0.47826087       0.00000000 </v>
   <v>       0.13043478       0.08695652       0.04347826 </v>
   <v>       0.17391304       0.08695652       0.04347826 </v>
   <v>       0.21739130       0.08695652       0.04347826 </v>
   <v>       0.26086957       0.08695652       0.04347826 </v>
   <v>       0.30434783       0.08695652       0.04347826 </v>
   <v>       0.34782609       0.08695652       0.04347826 </v>
   <v>       0.39130435       0.08695652       0.04347826 </v>
   <v>       0.43478261       0.08695652       0.04347826 </v>
   <v>       0.47826087       0.08695652       0.04347826 </v>
   <v>      -0.47826087       0.08695652       0.04347826 </v>
   <v>       0.17391304       0.13043478       0.04347826 </v>
   <v>       0.21739130       0.13043478       0.04347826 </v>
   <v>       0.26086957       0.13043478       0.04347826 </v>
   <v>       0.30434783       0.13043478       0.04347826 </v>
   <v>       0.34782609       0.13043478       0.04347826 </v>
   <v>       0.39130435       0.13043478       0.04347826 </v>
   <v>       0.43478261       0.13043478       0.04347826 </v>
   <v>       0.47826087       0.13043478       0.04347826 </v>
   <v>      -0.47826087       0.13043478       0.04347826 </v>
   <v>      -0.43478261       0.13043478       0.04347826 </v>
   <v>      -0.39130435       0.13043478       0.04347826 </v>
   <v>      -0.34782609       0.13043478       0.04347826 </v>
   <v>      -0.30434783       0.13043478       0.04347826 </v>
   <v>      -0.26086957       0.13043478       0.04347826 </v>
   <v>      -0.21739130       0.13043478       0.04347826 </v>
   <v>      -0.17391304       0.13043478       0.04347826 </v>
   <v>      -0.13043478       0.13043478       0.04347826 </v>
   <v>      -0.08695652       0.13043478       0.04347826 </v>
   <v>       0.21739130       0.17391304       0.04347826 </v>
   <v>       0.26086957       0.17391304       0.04347826 </v>
   <v>       0.30434783       0.17391304       0.04347826 </v>
   <v>       0.34782609       0.17391304       0.04347826 </v>
   <v>       0.39130435       0.17391304       0.04347826 </v>
   <v>       0.43478261       0.17391304       0.04347826 </v>
   <v>       0.47826087       0.17391304       0.04347826 </v>
   <v>      -0.47826087       0.17391304       0.04347826 </v>
   <v>      -0.43478261       0.17391304       0.04347826 </v>
   <v>      -0.39130435       0.17391304       0.04347826 </v>
   <v>      -0.34782609       0.17391304       0.04347826 </v>
   <v>      -0.30434783       0.17391304       0.04347826 </v>
   <v>      -0.26086957       0.17391304       0.04347826 </v>
   <v>      -0.21739130       0.17391304       0.04347826 </v>
   <v>      -0.17391304       0.17391304       0.04347826 </v>
   <v>      -0.13043478       0.17391304       0.04347826 </v>
   <v>       0.26086957       0.21739130       0.04347826 </v>
   <v>       0.30434783       0.21739130       0.04347826 </v>
   <v>       0.34782609       0.21739130       0.04347826 </v>
   <v>       0.39130435       0.21739130       0.04347826 </v>
   <v>       0.43478261       0.21739130       0.04347826 </v>
   <v>       0.47826087       0.21739130       0.04347826 </v>
   <v>      -0.47826087       0.21739130       0.04347826 </v>
   <v>      -0.43478261       0.21739130       0.04347826 </v>
   <v>      -0.39130435       0.21739130       0.04347826 </v>
   <v>      -0.34782609       0.21739130       0.04347826 </v>
   <v>      -0.30434783       0.21739130       0.04347826 </v>
   <v>      -0.26086957       0.21739130       0.04347826 </v>
   <v>      -0.21739130       0.21739130       0.04347826 </v>
   <v>      -0.17391304       0.21739130       0.04347826 </v>
   <v>       0.30434783       0.26086957       0.04347826 </v>
   <v>       0.34782609       0.26086957       0.04347826 </v>
   <v>       0.39130435       0.26086957       0.04347826 </v>
   <v>       0.43478261       0.26086957       0.04347826 </v>
   <v>       0.47826087       0.26086957       0.04347826 </v>
   <v>      -0.47826087       0.26086957       0.04347826 </v>
   <v>      -0.43478261       0.26086957       0.04347826 </v>
   <v>      -0.39130435       0.26086957       0.04347826 </v>
   <v>      -0.34782609       0.26086957       0.04347826 </v>
   <v>      -0.30434783       0.26086957       0.04347826 </v>
   <v>      -0.26086957       0.26086957       0.04347826 </v>
   <v>      -0.21739130       0.26086957       0.04347826 </v>
   <v>       0.34782609       0.30434783       0.04347826 </v>
   <v>       0.39130435       0.30434783       0.04347826 </v>
   <v>       0.43478261       0.30434783       0.04347826 </v>
   <v>       0.47826087       0.30434783       0.04347826 </v>
   <v>      -0.47826087       0.30434783       0.04347826 </v>
   <v>      -0.43478261       0.30434783       0.04347826 </v>
   <v>      -0.39130435       0.30434783       0.04347826 </v>
   <v>      -0.34782609       0.30434783       0.04347826 </v>
   <v>      -0.30434783       0.30434783       0.04347826 </v>
   <v>      -0.26086957       0.30434783       0.04347826 </v>
   <v>       0.39130435       0.34782609       0.04347826 </v>
   <v>       0.43478261       0.34782609       0.04347826 </v>
   <v>       0.47826087       0.34782609       0.04347826 </v>
   <v>      -0.47826087       0.34782609       0.04347826 </v>
   <v>      -0.43478261       0.34782609       0.04347826 </v>
   <v>      -0.39130435       0.34782609       0.04347826 </v>
   <v>      -0.34782609       0.34782609       0.04347826 </v>
   <v>      -0.30434783       0.34782609       0.04347826 </v>
   <v>       0.43478261       0.39130435       0.04347826 </v>
   <v>       0.47826087       0.39130435       0.04347826 </v>
   <v>      -0.47826087       0.39130435       0.04347826 </v>
   <v>      -0.43478261       0.39130435       0.04347826 </v>
   <v>      -0.39130435       0.39130435       0.04347826 </v>
   <v>      -0.34782609       0.39130435       0.04347826 </v>
   <v>       0.47826087       0.43478261       0.04347826 </v>
   <v>      -0.47826087       0.43478261       0.04347826 </v>
   <v>      -0.43478261       0.43478261       0.04347826 </v>
   <v>      -0.39130435       0.43478261       0.04347826 </v>
   <v>      -0.47826087       0.47826087       0.04347826 </v>
   <v>      -0.43478261       0.47826087       0.04347826 </v>
   <v>       0.26086957       0.17391304       0.08695652 </v>
   <v>       0.30434783       0.17391304       0.08695652 </v>
   <v>       0.34782609       0.17391304       0.08695652 </v>
   <v>       0.39130435       0.17391304       0.08695652 </v>
   <v>       0.43478261       0.17391304       0.08695652 </v>
   <v>       0.47826087       0.17391304       0.08695652 </v>
   <v>      -0.47826087       0.17391304       0.08695652 </v>
   <v>      -0.43478261       0.17391304       0.08695652 </v>
   <v>       0.30434783       0.21739130       0.08695652 </v>
   <v>       0.34782609       0.21739130       0.08695652 </v>
   <v>       0.39130435       0.21739130       0.08695652 </v>
   <v>       0.43478261       0.21739130       0.08695652 </v>
   <v>       0.47826087       0.21739130       0.08695652 </v>
   <v>      -0.47826087       0.21739130       0.08695652 </v>
   <v>      -0.43478261       0.21739130       0.08695652 </v>
   <v>      -0.39130435       0.21739130       0.08695652 </v>
   <v>      -0.34782609       0.21739130       0.08695652 </v>
   <v>      -0.30434783       0.21739130       0.08695652 </v>
   <v>      -0.26086957       0.21739130       0.08695652 </v>
   <v>      -0.21739130       0.21739130       0.08695652 </v>
   <v>      -0.17391304       0.21739130       0.08695652 </v>
   <v>      -0.13043478       0.21739130       0.08695652 </v>
   <v>       0.34782609       0.26086957       0.08695652 </v>
   <v>       0.39130435       0.26086957       0.08695652 </v>
   <v>       0.43478261       0.26086957       0.08695652 </v>
   <v>       0.47826087       0.26086957       0.08695652 </v>
   <v>      -0.47826087       0.26086957       0.08695652 </v>
   <v>      -0.43478261       0.26086957       0.08695652 </v>
   <v>      -0.39130435       0.26086957       0.08695652 </v>
   <v>      -0.34782609       0.26086957       0.08695652 </v>
   <v>      -0.30434783       0.26086957       0.08695652 </v>
   <v>      -0.26086957       0.26086957       0.08695652 </v>
   <v>      -0.21739130       0.26086957       0.08695652 </v>
   <v>      -0.17391304       0.26086957       0.08695652 </v>
   <v>       0.39130435       0.30434783       0.08695652 </v>
   <v>       0.43478261       0.30434783       0.08695652 </v>
   <v>       0.47826087       0.30434783       0.08695652 </v>
   <v>      -0.47826087       0.30434783       0.08695652 </v>
   <v>      -0.43478261       0.30434783       0.08695652 </v>
   <v>      -0.39130435       0.30434783       0.08695652 </v>
   <v>      -0.34782609       0.30434783       0.08695652 </v>
   <v>      -0.30434783       0.30434783       0.08695652 </v>
   <v>      -0.26086957       0.30434783       0.08695652 </v>
   <v>      -0.21739130       0.30434783       0.08695652 </v>
   <v>       0.43478261       0.34782609       0.08695652 </v>
   <v>       0.47826087       0.34782609       0.08695652 </v>
   <v>      -0.47826087       0.34782609       0.08695652 </v>
   <v>      -0.43478261       0.34782609       0.08695652 </v>
   <v>      -0.39130435       0.34782609       0.08695652 </v>
   <v>      -0.34782609       0.34782609       0.08695652 </v>
   <v>      -0.30434783       0.34782609       0.08695652 </v>
   <v>      -0.26086957       0.34782609       0.08695652 </v>
   <v>       0.47826087       0.39130435       0.08695652 </v>
   <v>      -0.47826087       0.39130435       0.08695652 </v>
   <v>      -0.43478261       0.39130435       0.08695652 </v>
   <v>      -0.39130435       0.39130435       0.08695652 </v>
   <v>      -0.34782609       0.39130435       0.08695652 </v>
   <v>      -0.30434783       0.39130435       0.08695652 </v>
   <v>      -0.47826087       0.43478261       0.08695652 </v>
   <v>      -0.43478261       0.43478261       0.08695652 </v>
   <v>      -0.39130435       0.43478261       0.08695652 </v>
   <v>      -0.34782609       0.43478261       0.08695652 </v>
   <v>      -0.43478261       0.47826087       0.08695652 </v>
   <v>      -0.39130435       0.47826087       0.08695652 </v>
   <v>       0.39130435       0.26086957       0.13043478 </v>
   <v>       0.43478261       0.26086957       0.13043478 </v>
   <v>       0.47826087       0.26086957       0.13043478 </v>
   <v>      -0.47826087       0.26086957       0.13043478 </v>
   <v>      -0.43478261       0.26086957       0.13043478 </v>
   <v>      -0.39130435       0.26086957       0.13043478 </v>
   <v>       0.43478261       0.30434783       0.13043478 </v>
   <v>       0.47826087       0.30434783       0.13043478 </v>
   <v>      -0.47826087       0.30434783       0.13043478 </v>
   <v>      -0.43478261       0.30434783       0.13043478 </v>
   <v>      -0.39130435       0.30434783       0.13043478 </v>
   <v>      -0.34782609       0.30434783       0.13043478 </v>
   <v>      -0.30434783       0.30434783       0.13043478 </v>
   <v>      -0.26086957       0.30434783       0.13043478 </v>
   <v>      -0.21739130       0.30434783       0.13043478 </v>
   <v>      -0.17391304       0.30434783       0.13043478 </v>
   <v>       0.47826087       0.34782609       0.13043478 </v>
   <v>      -0.47826087       0.34782609       0.13043478 </v>
   <v>      -0.43478261       0.34782609       0.13043478 </v>
   <v>      -0.39130435       0.34782609       0.13043478 </v>
   <v>      -0.34782609       0.34782609       0.13043478 </v>
   <v>      -0.30434783       0.34782609       0.13043478 </v>
   <v>      -0.26086957       0.34782609       0.13043478 </v>
   <v>      -0.21739130       0.34782609       0.13043478 </v>
   <v>      -0.47826087       0.39130435       0.13043478 </v>
   <v>      -0.43478261       0.39130435       0.13043478 </v>
   <v>      -0.39130435       0.39130435       0.13043478 </v>
   <v>      -0.34782609       0.39130435       0.13043478 </v>
   <v>      -0.30434783       0.39130435       0.13043478 </v>
   <v>      -0.26086957       0.39130435       0.13043478 </v>
   <v>      -0.43478261       0.43478261       0.13043478 </v>
   <v>      -0.39130435       0.43478261       0.13043478 </v>
   <v>      -0.34782609       0.43478261       0.13043478 </v>
   <v>      -0.30434783       0.43478261       0.13043478 </v>
   <v>      -0.39130435       0.47826087       0.13043478 </v>
   <v>      -0.34782609       0.47826087       0.13043478 </v>
   <v>      -0.47826087       0.34782609       0.17391304 </v>
   <v>      -0.43478261       0.34782609       0.17391304 </v>
   <v>      -0.39130435       0.34782609       0.17391304 </v>
   <v>      -0.34782609       0.34782609       0.17391304 </v>
   <v>      -0.43478261       0.39130435       0.17391304 </v>
   <v>      -0.39130435       0.39130435       0.17391304 </v>
   <v>      -0.34782609       0.39130435       0.17391304 </v>
   <v>      -0.30434783       0.39130435       0.17391304 </v>
   <v>      -0.26086957       0.39130435       0.17391304 </v>
   <v>      -0.21739130       0.39130435       0.17391304 </v>
   <v>      -0.39130435       0.43478261       0.17391304 </v>
   <v>      -0.34782609       0.43478261       0.17391304 </v>
   <v>      -0.30434783       0.43478261       0.17391304 </v>
   <v>      -0.26086957       0.43478261       0.17391304 </v>
   <v>      -0.34782609       0.47826087       0.17391304 </v>
   <v>      -0.30434783       0.47826087       0.17391304 </v>
   <v>      -0.34782609       0.43478261       0.21739130 </v>
   <v>      -0.30434783       0.43478261       0.21739130 </v>
   <v>      -0.30434783       0.47826087       0.21739130 </v>
   <v>      -0.26086957       0.47826087       0.21739130 </v>
  </varray>
  <varray name="weights" >
   <v>       0.00008219 </v>
   <v>       0.00065752 </v>
   <v>       0.00065752 </v>
   <v>       0.00065752 </v>
   <v>       0.00065752 </v>
   <v>       0.00065752 </v>
   <v>       0.00065752 </v>
   <v>       0.00065752 </v>
   <v>       0.00065752 </v>
   <v>       0.00065752 </v>
   <v>       0.00065752 </v>
   <v>       0.00065752 </v>
   <v>       0.00049314 </v>
   <v>       0.00197255 </v>
   <v>       0.00197255 </v>
   <v>       0.00197255 </v>
   <v>       0.00197255 </v>
   <v>       0.00197255 </v>
   <v>       0.00197255 </v>
   <v>       0.00197255 </v>
   <v>       0.00197255 </v>
   <v>       0.00197255 </v>
   <v>       0.00197255 </v>
   <v>       0.00197255 </v>
   <v>       0.00197255 </v>
   <v>       0.00197255 </v>
   <v>       0.00197255 </v>
   <v>       0.00197255 </v>
   <v>       0.00197255 </v>
   <v>       0.00197255 </v>
   <v>       0.00197255 </v>
   <v>       0.00197255 </v>
   <v>       0.00197255 </v>
   <v>       0.00098627 </v>
   <v>       0.00049314 </v>
   <v>       0.00197255 </v>
   <v>       0.00197255 </v>
   <v>       0.00197255 </v>
   <v>       0.00197255 </v>
   <v>       0.00197255 </v>
   <v>       0.00197255 </v>
   <v>       0.00197255 </v>
   <v>       0.00197255 </v>
   <v>       0.00197255 </v>
   <v>       0.00197255 </v>
   <v>       0.00197255 </v>
   <v>       0.00197255 </v>
   <v>       0.00197255 </v>
   <v>       0.00197255 </v>
   <v>       0.00197255 </v>
   <v>       0.00197255 </v>
   <v>       0.00197255 </v>
   <v>       0.00197255 </v>
   <v>       0.00098627 </v>
   <v>       0.00049314 </v>
   <v>       0.00197255 </v>
   <v>       0.00197255 </v>
   <v>       0.00197255 </v>
   <v>       0.00197255 </v>
   <v>       0.00197255 </v>
   <v>       0.00197255 </v>
   <v>       0.00197255 </v>
   <v>       0.00197255 </v>
   <v>       0.00197255 </v>
   <v>       0.00197255 </v>
   <v>       0.00197255 </v>
   <v>       0.00197255 </v>
   <v>       0.00197255 </v>
   <v>       0.00197255 </v>
   <v>       0.00197255 </v>
   <v>       0.00197255 </v>
   <v>       0.00098627 </v>
   <v>       0.00049314 </v>
   <v>       0.00197255 </v>
   <v>       0.00197255 </v>
   <v>       0.00197255 </v>
   <v>       0.00197255 </v>
   <v>       0.00197255 </v>
   <v>       0.00197255 </v>
   <v>       0.00197255 </v>
   <v>       0.00197255 </v>
   <v>       0.00197255 </v>
   <v>       0.00197255 </v>
   <v>       0.00197255 </v>
   <v>       0.00197255 </v>
   <v>       0.00197255 </v>
   <v>       0.00197255 </v>
   <v>       0.00098627 </v>
   <v>       0.00049314 </v>
   <v>       0.00197255 </v>
   <v>       0.00197255 </v>
   <v>       0.00197255 </v>
   <v>       0.00197255 </v>
   <v>       0.00197255 </v>
   <v>       0.00197255 </v>
   <v>       0.00197255 </v>
   <v>       0.00197255 </v>
   <v>       0.00197255 </v>
   <v>       0.00197255 </v>
   <v>       0.00197255 </v>
   <v>       0.00197255 </v>
   <v>       0.00098627 </v>
   <v>       0.00049314 </v>
   <v>       0.00197255 </v>
   <v>       0.00197255 </v>
   <v>       0.00197255 </v>
   <v>       0.00197255 </v>
   <v>       0.00197255 </v>
   <v>       0.00197255 </v>
   <v>       0.00197255 </v>
   <v>       0.00197255 </v>
   <v>       0.00197255 </v>
   <v>       0.00197255 </v>
   <v>       0.00098627 </v>
   <v>       0.00049314 </v>
   <v>       0.00197255 </v>
   <v>       0.00197255 </v>
   <v>       0.00197255 </v>
   <v>       0.00197255 </v>
   <v>       0.00197255 </v>
   <v>       0.00197255 </v>
   <v>       0.00197255 </v>
   <v>       0.00197255 </v>
   <v>       0.00098627 </v>
   <v>       0.00049314 </v>
   <v>       0.00197255 </v>
   <v>       0.00197255 </v>
   <v>       0.00197255 </v>
   <v>       0.00197255 </v>
   <v>       0.00197255 </v>
   <v>       0.00197255 </v>
   <v>       0.00098627 </v>
   <v>       0.00049314 </v>
   <v>       0.00197255 </v>
   <v>       0.00197255 </v>
   <v>       0.00197255 </v>
   <v>       0.00197255 </v>
   <v>       0.00098627 </v>
   <v>       0.00049314 </v>
   <v>       0.00197255 </v>
   <v>       0.00197255 </v>
   <v>       0.00098627 </v>
   <v>       0.00049314 </v>
   <v>       0.00098627 </v>
   <v>       0.00197255 </v>
   <v>       0.00394510 </v>
   <v>       0.00394510 </v>
   <v>       0.00394510 </v>
   <v>       0.00394510 </v>
   <v>       0.00394510 </v>
   <v>       0.00394510 </v>
   <v>       0.00394510 </v>
   <v>       0.00394510 </v>
   <v>       0.00394510 </v>
   <v>       0.00197255 </v>
   <v>       0.00394510 </v>
   <v>       0.00394510 </v>
   <v>       0.00394510 </v>
   <v>       0.00394510 </v>
   <v>       0.00394510 </v>
   <v>       0.00394510 </v>
   <v>       0.00394510 </v>
   <v>       0.00394510 </v>
   <v>       0.00394510 </v>
   <v>       0.00394510 </v>
   <v>       0.00394510 </v>
   <v>       0.00394510 </v>
   <v>       0.00394510 </v>
   <v>       0.00394510 </v>
   <v>       0.00394510 </v>
   <v>       0.00394510 </v>
   <v>       0.00197255 </v>
   <v>       0.00197255 </v>
   <v>       0.00394510 </v>
   <v>       0.00394510 </v>
   <v>       0.00394510 </v>
   <v>       0.00394510 </v>
   <v>       0.00394510 </v>
   <v>       0.00394510 </v>
   <v>       0.00394510 </v>
   <v>       0.00394510 </v>
   <v>       0.00394510 </v>
   <v>       0.00394510 </v>
   <v>       0.00394510 </v>
   <v>       0.00394510 </v>
   <v>       0.00394510 </v>
   <v>       0.00394510 </v>
   <v>       0.00197255 </v>
   <v>       0.00197255 </v>
   <v>       0.00394510 </v>
   <v>       0.00394510 </v>
   <v>       0.00394510 </v>
   <v>       0.00394510 </v>
   <v>       0.00394510 </v>
   <v>       0.00394510 </v>
   <v>       0.00394510 </v>
   <v>       0.00394510 </v>
   <v>       0.00394510 </v>
   <v>       0.00394510 </v>
   <v>       0.00394510 </v>
   <v>       0.00394510 </v>
   <v>       0.00197255 </v>
   <v>       0.00197255 </v>
   <v>       0.00394510 </v>
   <v>       0.00394510 </v>
   <v>       0.00394510 </v>
   <v>       0.00394510 </v>
   <v>       0.00394510 </v>
   <v>       0.00394510 </v>
   <v>       0.00394510 </v>
   <v>       0.00394510 </v>
   <v>       0.00394510 </v>
   <v>       0.00394510 </v>
   <v>       0.00197255 </v>
   <v>       0.00197255 </v>
   <v>       0.00394510 </v>
   <v>       0.00394510 </v>
   <v>       0.00394510 </v>
   <v>       0.00394510 </v>
   <v>       0.00394510 </v>
   <v>       0.00394510 </v>
   <v>       0.00394510 </v>
   <v>       0.00394510 </v>
   <v>       0.00197255 </v>
   <v>       0.00197255 </v>
   <v>       0.00394510 </v>
   <v>       0.00394510 </v>
   <v>       0.00394510 </v>
   <v>       0.00394510 </v>
   <v>       0.00394510 </v>
   <v>       0.00394510 </v>
   <v>       0.00197255 </v>
   <v>       0.00197255 </v>
   <v>       0.00394510 </v>
   <v>       0.00394510 </v>
   <v>       0.00394510 </v>
   <v>       0.00394510 </v>
   <v>       0.00197255 </v>
   <v>       0.00197255 </v>
   <v>       0.00394510 </v>
   <v>       0.00394510 </v>
   <v>       0.00197255 </v>
   <v>       0.00197255 </v>
   <v>       0.00197255 </v>
   <v>       0.00197255 </v>
   <v>       0.00394510 </v>
   <v>       0.00394510 </v>
   <v>       0.00394510 </v>
   <v>       0.00394510 </v>
   <v>       0.00394510 </v>
   <v>       0.00394510 </v>
   <v>       0.00394510 </v>
   <v>       0.00197255 </v>
   <v>       0.00394510 </v>
   <v>       0.00394510 </v>
   <v>       0.00394510 </v>
   <v>       0.00394510 </v>
   <v>       0.00394510 </v>
   <v>       0.00394510 </v>
   <v>       0.00394510 </v>
   <v>       0.00394510 </v>
   <v>       0.00394510 </v>
   <v>       0.00394510 </v>
   <v>       0.00394510 </v>
   <v>       0.00394510 </v>
   <v>       0.00197255 </v>
   <v>       0.00197255 </v>
   <v>       0.00394510 </v>
   <v>       0.00394510 </v>
   <v>       0.00394510 </v>
   <v>       0.00394510 </v>
   <v>       0.00394510 </v>
   <v>       0.00394510 </v>
   <v>       0.00394510 </v>
   <v>       0.00394510 </v>
   <v>       0.00394510 </v>
   <v>       0.00394510 </v>
   <v>       0.00197255 </v>
   <v>       0.00197255 </v>
   <v>       0.00394510 </v>
   <v>       0.00394510 </v>
   <v>       0.00394510 </v>
   <v>       0.00394510 </v>
   <v>       0.00394510 </v>
   <v>       0.00394510 </v>
   <v>       0.00394510 </v>
   <v>       0.00394510 </v>
   <v>       0.00197255 </v>
   <v>       0.00197255 </v>
   <v>       0.00394510 </v>
   <v>       0.00394510 </v>
   <v>       0.00394510 </v>
   <v>       0.00394510 </v>
   <v>       0.00394510 </v>
   <v>       0.00394510 </v>
   <v>       0.00197255 </v>
   <v>       0.00197255 </v>
   <v>       0.00394510 </v>
   <v>       0.00394510 </v>
   <v>       0.00394510 </v>
   <v>       0.00394510 </v>
   <v>       0.00197255 </v>
   <v>       0.00197255 </v>
   <v>       0.00394510 </v>
   <v>       0.00394510 </v>
   <v>       0.00197255 </v>
   <v>       0.00197255 </v>
   <v>       0.00197255 </v>
   <v>       0.00197255 </v>
   <v>       0.00394510 </v>
   <v>       0.00394510 </v>
   <v>       0.00394510 </v>
   <v>       0.00394510 </v>
   <v>       0.00394510 </v>
   <v>       0.00197255 </v>
   <v>       0.00394510 </v>
   <v>       0.00394510 </v>
   <v>       0.00394510 </v>
   <v>       0.00394510 </v>
   <v>       0.00394510 </v>
   <v>       0.00394510 </v>
   <v>       0.00394510 </v>
   <v>       0.00394510 </v>
   <v>       0.00197255 </v>
   <v>       0.00197255 </v>
   <v>       0.00394510 </v>
   <v>       0.00394510 </v>
   <v>       0.00394510 </v>
   <v>       0.00394510 </v>
   <v>       0.00394510 </v>
   <v>       0.00394510 </v>
   <v>       0.00197255 </v>
   <v>       0.00197255 </v>
   <v>       0.00394510 </v>
   <v>       0.00394510 </v>
   <v>       0.00394510 </v>
   <v>       0.00394510 </v>
   <v>       0.00197255 </v>
   <v>       0.00197255 </v>
   <v>       0.00394510 </v>
   <v>       0.00394510 </v>
   <v>       0.00197255 </v>
   <v>       0.00197255 </v>
   <v>       0.00197255 </v>
   <v>       0.00197255 </v>
   <v>       0.00394510 </v>
   <v>       0.00394510 </v>
   <v>       0.00394510 </v>
   <v>       0.00197255 </v>
   <v>       0.00394510 </v>
   <v>       0.00394510 </v>
   <v>       0.00394510 </v>
   <v>       0.00394510 </v>
   <v>       0.00197255 </v>
   <v>       0.00197255 </v>
   <v>       0.00394510 </v>
   <v>       0.00394510 </v>
   <v>       0.00197255 </v>
   <v>       0.00197255 </v>
   <v>       0.00197255 </v>
   <v>       0.00197255 </v>
   <v>       0.00394510 </v>
   <v>       0.00197255 </v>
   <v>       0.00197255 </v>
  </varray>
 </kpoints>
 <parameters>
  <separator name="general" >
   <i type="string" name="SYSTEM">(Zn S)36  (P1) ~ POSCAR_3x3x2_1 (VASP)</i>
   <i type="logical" name="LCOMPAT"> F  </i>
  </separator>
  <separator name="electronic" >
   <i type="string" name="PREC">normal</i>
   <i name="ENMAX">    520.00000000</i>
   <i name="ENAUG">    525.94900000</i>
   <i name="EDIFF">      0.00001000</i>
   <i type="int" name="IALGO">    38</i>
   <i type="int" name="IWAVPR">    10</i>
   <i type="int" name="NBANDS">    32</i>
   <i name="NELECT">     28.00000000</i>
   <i type="int" name="TURBO">     0</i>
   <i type="int" name="IRESTART">     0</i>
   <i type="int" name="NREBOOT">     0</i>
   <i type="int" name="NMIN">     0</i>
   <i name="EREF">      0.00000000</i>
   <separator name="electronic smearing" >
    <i type="int" name="ISMEAR">     1</i>
    <i name="SIGMA">      0.20000000</i>
    <i name="KSPACING">      0.50000000</i>
    <i type="logical" name="KGAMMA"> T  </i>
   </separator>
   <separator name="electronic projectors" >
    <i type="logical" name="LREAL"> F  </i>
    <v name="ROPT">      0.00000000      0.00000000</v>
    <i type="int" name="LMAXPAW">  -100</i>
    <i type="int" name="LMAXMIX">     4</i>
    <i type="logical" name="NLSPLINE"> F  </i>
   </separator>
   <separator name="electronic startup" >
    <i type="int" name="ISTART">     0</i>
    <i type="int" name="ICHARG">    11</i>
    <i type="int" name="INIWAV">     1</i>
   </separator>
   <separator name="electronic spin" >
    <i type="int" name="ISPIN">     1</i>
    <i type="logical" name="LNONCOLLINEAR"> F  </i>
    <v name="MAGMOM">      1.00000000      1.00000000</v>
    <i name="NUPDOWN">     -1.00000000</i>
    <i type="logical" name="LSORBIT"> F  </i>
    <v name="SAXIS">      0.00000000      0.00000000      1.00000000</v>
    <i type="logical" name="LSPIRAL"> F  </i>
    <v name="QSPIRAL">      0.00000000      0.00000000      0.00000000</v>
    <i type="logical" name="LZEROZ"> F  </i>
   </separator>
   <separator name="electronic exchange-correlation" >
    <i type="logical" name="LASPH"> F  </i>
    <i type="logical" name="LMETAGGA"> F  </i>
   </separator>
   <separator name="electronic convergence" >
    <i type="int" name="NELM">    60</i>
    <i type="int" name="NELMDL">    -5</i>
    <i type="int" name="NELMIN">     2</i>
    <i name="ENINI">    520.00000000</i>
    <separator name="electronic convergence detail" >
     <i type="logical" name="LDIAG"> T  </i>
     <i type="logical" name="LSUBROT"> T  </i>
     <i name="WEIMIN">      0.00000000</i>
     <i name="EBREAK">      0.00000008</i>
     <i name="DEPER">      0.30000000</i>
     <i type="int" name="NRMM">     4</i>
     <i name="TIME">      0.40000000</i>
    </separator>
   </separator>
   <separator name="electronic mixer" >
    <i name="AMIX">      0.40000000</i>
    <i name="BMIX">      1.00000000</i>
    <i name="AMIN">      0.10000000</i>
    <i name="AMIX_MAG">      1.60000000</i>
    <i name="BMIX_MAG">      1.00000000</i>
    <separator name="electronic mixer details" >
     <i type="int" name="IMIX">     4</i>
     <i type="int" name="MAXMIX">   -45</i>
     <i name="WC">    100.00000000</i>
     <i type="int" name="INIMIX">     1</i>
     <i type="int" name="MIXPRE">     1</i>
     <i type="int" name="MREMOVE">     5</i>
    </separator>
   </separator>
   <separator name="electronic dipolcorrection" >
    <i type="logical" name="LDIPOL"> F  </i>
    <i type="logical" name="LMONO"> F  </i>
    <i type="int" name="IDIPOL">     0</i>
    <i name="EPSILON">      1.00000000</i>
    <v name="DIPOL">   -100.00000000   -100.00000000   -100.00000000</v>
    <i name="EFIELD">      0.00000000</i>
   </separator>
  </separator>
  <separator name="grids" >
   <i type="int" name="NGX">    24</i>
   <i type="int" name="NGY">    24</i>
   <i type="int" name="NGZ">    24</i>
   <i type="int" name="NGXF">    48</i>
   <i type="int" name="NGYF">    48</i>
   <i type="int" name="NGZF">    48</i>
   <i type="logical" name="ADDGRID"> F  </i>
  </separator>
  <separator name="ionic" >
   <i type="int" name="NSW">     0</i>
   <i type="int" name="IBRION">    -1</i>
   <i type="int" name="ISIF">     2</i>
   <i name="PSTRESS">      0.00000000</i>
   <i name="EDIFFG">     -0.02000000</i>
   <i type="int" name="NFREE">     0</i>
   <i name="POTIM">      0.50000000</i>
   <i name="SMASS">     -3.00000000</i>
   <i name="SCALEE">      1.00000000</i>
  </separator>
  <separator name="ionic md" >
   <i name="TEBEG">      0.00010000</i>
   <i name="TEEND">      0.00010000</i>
   <i type="int" name="NBLOCK">     1</i>
   <i type="int" name="KBLOCK">     1</i>
   <i type="int" name="NPACO">   256</i>
   <i name="APACO">     16.00000000</i>
  </separator>
  <separator name="symmetry" >
   <i type="int" name="ISYM">     2</i>
   <i name="SYMPREC">      0.00001000</i>
  </separator>
  <separator name="dos" >
   <i type="logical" name="LORBIT"> F  </i>
   <v name="RWIGS">     -1.00000000     -1.00000000</v>
   <i type="int" name="NEDOS">   301</i>
   <i name="EMIN">     10.00000000</i>
   <i name="EMAX">    -10.00000000</i>
   <i name="EFERMI">      0.00000000</i>
  </separator>
  <separator name="writing" >
   <i type="int" name="NWRITE">     2</i>
   <i type="logical" name="LWAVE"> T  </i>
   <i type="logical" name="LCHARG"> F  </i>
   <i type="logical" name="LPARD"> F  </i>
   <i type="logical" name="LVTOT"> F  </i>
   <i type="logical" name="LVHAR"> F  </i>
   <i type="logical" name="LELF"> F  </i>
   <i type="logical" name="LOPTICS"> F  </i>
   <v name="STM">      0.00000000      0.00000000      0.00000000      0.00000000      0.00000000      0.00000000      0.00000000</v>
  </separator>
  <separator name="performance" >
   <i type="int" name="NPAR">    16</i>
   <i type="int" name="NSIM">     4</i>
   <i type="int" name="NBLK">    -1</i>
   <i type="logical" name="LPLANE"> T  </i>
   <i type="logical" name="LSCALAPACK"> F  </i>
   <i type="logical" name="LSCAAWARE"> F  </i>
   <i type="logical" name="LSCALU"> F  </i>
   <i type="logical" name="LASYNC"> F  </i>
   <i type="logical" name="LORBITALREAL"> F  </i>
  </separator>
  <separator name="miscellaneous" >
   <i type="int" name="IDIOT">     3</i>
   <i type="logical" name="LMUSIC"> F  </i>
   <v name="POMASS">     69.72300000     74.92200000</v>
   <v name="DARWINR">      0.00000000      0.00000000</v>
   <v name="DARWINV">      1.00000000      1.00000000</v>
   <i type="logical" name="LCORR"> T  </i>
  </separator>
  <i type="logical" name="GGA_COMPAT"> T  </i>
  <i type="logical" name="LBERRY"> F  </i>
  <i type="int" name="ICORELEVEL">     0</i>
  <i type="logical" name="LDAU"> T  </i>
  <v type="int" name="LDAUTYPE">     2</v>
  <v type="int" name="LDAUL">     2</v>
  <v name="LDAUU">      7.00000000</v>
  <v name="LDAUJ">      0.00000000</v>
  <i type="int" name="LDAUPRINT">     0</i>
  <i type="int" name="I_CONSTRAINED_M">     0</i>
  <separator name="electronic exchange-correlation" >
   <i type="string" name="GGA">--</i>
   <i type="int" name="VOSKOWN">     0</i>
   <i type="logical" name="LHFCALC"> F  </i>
   <i type="string" name="PRECFOCK"></i>
   <i type="logical" name="LSYMGRAD"> F  </i>
   <i type="logical" name="LHFONE"> F  </i>
   <i type="logical" name="LRHFCALC"> F  </i>
   <i type="logical" name="LTHOMAS"> F  </i>
   <i type="logical" name="LMODELHF"> F  </i>
   <i name="ENCUT4O">     -1.00000000</i>
   <i type="int" name="EXXOEP">     0</i>
   <i type="int" name="FOURORBIT">     0</i>
   <i name="AEXX">      0.00000000</i>
   <i name="HFALPHA">      0.00000000</i>
   <i name="MCALPHA">      0.00000000</i>
   <i name="ALDAX">      1.00000000</i>
   <i name="AGGAX">      1.00000000</i>
   <i name="ALDAC">      1.00000000</i>
   <i name="AGGAC">      1.00000000</i>
   <i type="int" name="NKREDX">     1</i>
   <i type="int" name="NKREDY">     1</i>
   <i type="int" name="NKREDZ">     1</i>
   <i type="logical" name="SHIFTRED"> F  </i>
   <i type="logical" name="ODDONLY"> F  </i>
   <i type="logical" name="EVENONLY"> F  </i>
   <i type="int" name="LMAXFOCK">     0</i>
   <i type="int" name="NMAXFOCKAE">     0</i>
   <i type="logical" name="LFOCKAEDFT"> F  </i>
   <i name="HFSCREEN">      0.00000000</i>
   <i name="HFSCREENC">      0.00000000</i>
   <i type="int" name="NBANDSGWLOW">     0</i>
  </separator>
  <separator name="vdW DFT" >
   <i type="logical" name="LUSE_VDW"> F  </i>
   <i name="Zab_VDW">     -0.84910000</i>
   <i name="PARAM1">      0.12340000</i>
   <i name="PARAM2">      1.00000000</i>
   <i name="PARAM3">      0.00000000</i>
  </separator>
  <separator name="model GW" >
   <i type="int" name="MODEL_GW">     0</i>
   <i name="MODEL_EPS0">     13.34801298</i>
   <i name="MODEL_ALPHA">      1.00000000</i>
  </separator>
  <separator name="linear response parameters" >
   <i type="logical" name="LEPSILON"> F  </i>
   <i type="logical" name="LRPA"> F  </i>
   <i type="logical" name="LNABLA"> F  </i>
   <i type="logical" name="LVEL"> F  </i>
   <i type="int" name="KINTER">     0</i>
   <i name="CSHIFT">      0.10000000</i>
   <i name="OMEGAMAX">     -1.00000000</i>
   <i name="DEG_THRESHOLD">      0.00200000</i>
  </separator>
  <separator name="orbital magnetization" >
   <i type="logical" name="NUCIND"> F  </i>
   <v name="MAGPOS">      0.00000000      0.00000000      0.00000000</v>
   <i type="logical" name="LNICSALL"> T  </i>
   <i type="logical" name="ORBITALMAG"> F  </i>
   <i type="logical" name="LMAGBLOCH"> F  </i>
   <i type="logical" name="LCHIMAG"> F  </i>
   <i type="logical" name="LGAUGE"> T  </i>
   <i type="int" name="MAGATOM">     0</i>
   <v name="MAGDIPOL">      0.00000000      0.00000000      0.00000000</v>
   <v name="AVECCONST">      0.00000000      0.00000000      0.00000000</v>
  </separator>
  <separator name="response functions" >
   <i type="logical" name="LADDER"> F  </i>
   <i type="logical" name="LFXC"> F  </i>
   <i type="logical" name="LHARTREE"> T  </i>
   <i type="int" name="IBSE">     0</i>
   <i type="logical" name="LTCTE"> F  </i>
   <i type="logical" name="LTETE"> F  </i>
   <i type="logical" name="LTRIPLET"> F  </i>
   <i type="logical" name="LFXCEPS"> F  </i>
   <i type="logical" name="L2ORDER"> F  </i>
   <i type="logical" name="LUSEW"> F  </i>
   <i name="ENCUTGW">     -2.00000000</i>
   <i name="ENCUTGWSOFT">     -2.00000000</i>
   <i name="ENCUTLF">     -1.00000000</i>
   <i type="int" name="LMAXMP2">    -1</i>
   <i name="SCISSOR">      0.00000000</i>
   <i type="int" name="NOMEGA">     0</i>
   <i type="int" name="NOMEGAR">     0</i>
   <i type="int" name="NBANDSGW">    -1</i>
   <i type="int" name="NBANDSO">    -1</i>
   <i type="int" name="NBANDSV">    -1</i>
   <i type="int" name="NELM">    60</i>
   <i type="int" name="DIM">     3</i>
   <i type="int" name="ANTIRES">     0</i>
   <i name="OMEGAMAX">    -30.00000000</i>
   <i name="OMEGATL">   -200.00000000</i>
   <i type="int" name="OMEGAGRID">     0</i>
   <i name="CSHIFT">     -0.10000000</i>
   <i type="logical" name="SELFENERGY"> F  </i>
   <i type="logical" name="LSPECTRAL"> F  </i>
   <i type="logical" name="ODDONLYGW"> F  </i>
   <i type="logical" name="EVENONLYGW"> F  </i>
   <i type="int" name="NKREDLFX">     1</i>
   <i type="int" name="NKREDLFY">     1</i>
   <i type="int" name="NKREDLFZ">     1</i>
   <i type="int" name="MAXMEM">  1800</i>
   <i type="int" name="TELESCOPE">     0</i>
  </separator>
 </parameters>
 <atominfo>
  <atoms>       2 </atoms>
  <types>       2 </types>
  <array name="atoms" >
   <dimension dim="1">ion</dimension>
   <field type="string">element</field>
   <field type="int">atomtype</field>
   <set>
    <rc><c>Ga</c><c>   1</c></rc>
    <rc><c>As</c><c>   2</c></rc>
   </set>
  </array>
  <array name="atomtypes" >
   <dimension dim="1">type</dimension>
   <field type="int">atomspertype</field>
   <field type="string">element</field>
   <field>mass</field>
   <field>valence</field>
   <field type="string">pseudopotential</field>
   <set>
    <rc><c>   1</c><c>Ga</c><c>     69.72300000</c><c>     13.00000000</c><c>  PAW_PBE Ga_d 06Jul2010                </c></rc>
    <rc><c>   1</c><c>As</c><c>     74.92200000</c><c>     15.00000000</c><c>  PAW_PBE As_d 11Apr2003                </c></rc>
   </set>
  </array>
 </atominfo>
 <structure name="initialpos" >
  <crystal>
   <varray name="basis" >
    <v>       0.00000000       2.81247361       2.81247361 </v>
    <v>       2.81247361       0.00000000       2.81247361 </v>
    <v>       2.81247361       2.81247361       0.00000000 </v>
   </varray>
   <i name="volume">     44.49337659 </i>
   <varray name="rec_basis" >
    <v>      -0.17777945       0.17777945       0.17777945 </v>
    <v>       0.17777945      -0.17777945       0.17777945 </v>
    <v>       0.17777945       0.17777945      -0.17777945 </v>
   </varray>
  </crystal>
  <varray name="positions" >
   <v>       0.00000000       0.00000000       0.00000000 </v>
   <v>       0.25000000       0.25000000       0.25000000 </v>
  </varray>
 </structure>
 <calculation>
  <scstep>
   <time name="dav">    6.48    6.50</time>
   <time name="total">    6.50    6.52</time>
   <energy>
    <i name="alphaZ">    168.06101162 </i>
    <i name="ewald">  -2712.54946641 </i>
    <i name="hartreedc">  -1486.46825716 </i>
    <i name="XCdc">    125.20607231 </i>
    <i name="pawpsdc">   4331.30726064 </i>
    <i name="pawaedc">  -5160.50779700 </i>
    <i name="eentropy">      0.00019192 </i>
    <i name="bandstr">   -380.43998618 </i>
    <i name="atom">   5242.53547805 </i>
    <i name="e_fr_energy">    127.14450779 </i>
    <i name="e_wo_entrp">    127.14431587 </i>
    <i name="e_0_energy">    127.14444382 </i>
   </energy>
  </scstep>
  <scstep>
   <time name="dav">    6.46    6.48</time>
   <time name="total">    6.46    6.48</time>
   <energy>
    <i name="e_fr_energy">      1.14246950 </i>
    <i name="e_wo_entrp">      1.14204977 </i>
    <i name="e_0_energy">      1.14232959 </i>
   </energy>
  </scstep>
  <scstep>
   <time name="dav">    6.24    6.26</time>
   <time name="total">    6.25    6.27</time>
   <energy>
    <i name="e_fr_energy">     -8.40033814 </i>
    <i name="e_wo_entrp">     -8.40091532 </i>
    <i name="e_0_energy">     -8.40053053 </i>
   </energy>
  </scstep>
  <scstep>
   <time name="dav">    7.56    7.58</time>
   <time name="total">    7.57    7.59</time>
   <energy>
    <i name="e_fr_energy">     -8.58059728 </i>
    <i name="e_wo_entrp">     -8.58117737 </i>
    <i name="e_0_energy">     -8.58079065 </i>
   </energy>
  </scstep>
  <scstep>
   <time name="dav">    6.60    6.61</time>
   <time name="total">    6.60    6.62</time>
   <energy>
    <i name="e_fr_energy">     -8.58240535 </i>
    <i name="e_wo_entrp">     -8.58298544 </i>
    <i name="e_0_energy">     -8.58259871 </i>
   </energy>
  </scstep>
  <scstep>
   <time name="dav">    7.52    7.54</time>
   <time name="total">    7.52    7.54</time>
   <energy>
    <i name="e_fr_energy">     -8.58243700 </i>
    <i name="e_wo_entrp">     -8.58301709 </i>
    <i name="e_0_energy">     -8.58263036 </i>
   </energy>
  </scstep>
  <scstep>
   <time name="dav">    6.08    6.09</time>
   <time name="total">    6.08    6.10</time>
   <energy>
    <i name="alphaZ">    168.06101162 </i>
    <i name="ewald">  -2712.54946641 </i>
    <i name="hartreedc">  -1486.46825716 </i>
    <i name="XCdc">    125.20607231 </i>
    <i name="pawpsdc">   4331.30726064 </i>
    <i name="pawaedc">  -5160.50779700 </i>
    <i name="eentropy">      0.00058009 </i>
    <i name="bandstr">   -516.16731996 </i>
    <i name="atom">   5242.53547805 </i>
    <i name="e_fr_energy">     -8.58243783 </i>
    <i name="e_wo_entrp">     -8.58301792 </i>
    <i name="e_0_energy">     -8.58263119 </i>
   </energy>
  </scstep>
  <structure>
   <crystal>
    <varray name="basis" >
     <v>       0.00000000       2.81247361       2.81247361 </v>
     <v>       2.81247361       0.00000000       2.81247361 </v>
     <v>       2.81247361       2.81247361       0.00000000 </v>
    </varray>
    <i name="volume">     44.49337659 </i>
    <varray name="rec_basis" >
     <v>      -0.17777945       0.17777945       0.17777945 </v>
     <v>       0.17777945      -0.17777945       0.17777945 </v>
     <v>       0.17777945       0.17777945      -0.17777945 </v>
    </varray>
   </crystal>
   <varray name="positions" >
    <v>       0.00000000       0.00000000       0.00000000 </v>
    <v>       0.25000000       0.25000000       0.25000000 </v>
   </varray>
  </structure>
  <varray name="forces" >
   <v>      -0.00000000      -0.00000000      -0.00000000 </v>
   <v>       0.00000000       0.00000000       0.00000000 </v>
  </varray>
  <varray name="stress" >
   <v>      -6.64429112       0.00000000       0.00000000 </v>
   <v>      -0.00000000      -6.64429112      -0.00000000 </v>
   <v>      -0.00000000      -0.00000000      -6.64429112 </v>
  </varray>
  <energy>
   <i name="e_fr_energy">     -8.58243783 </i>
   <i name="e_wo_entrp">     -8.58263119 </i>
   <i name="e_0_energy">      0.00058009 </i>
  </energy>
  <time name="totalsc">   52.26   53.48</time>
  <eigenvalues>
   <array>
    <dimension dim="1">band</dimension>
    <dimension dim="2">kpoint</dimension>
    <dimension dim="3">spin</dimension>
    <field>eigene</field>
    <field>occ</field>
    <set>
     <set comment="spin 1">
      <set comment="kpoint 1">
       <r>  -35.0260    1.0000 </r>
       <r>  -35.0260    1.0000 </r>
       <r>  -35.0260    1.0000 </r>
       <r>  -34.9648    1.0000 </r>
       <r>  -34.9648    1.0000 </r>
       <r>  -14.9650    1.0000 </r>
       <r>  -14.9649    1.0000 </r>
       <r>  -14.9649    1.0000 </r>
       <r>  -14.8032    1.0000 </r>
       <r>  -14.8032    1.0000 </r>
       <r>   -9.5530    1.0000 </r>
       <r>    2.9732    0.6754 </r>
       <r>    2.9732    0.6753 </r>
       <r>    2.9732    0.6753 </r>
       <r>    3.9314   -0.0000 </r>
       <r>    6.5609   -0.0000 </r>
       <r>    6.5609   -0.0000 </r>
       <r>    6.5609   -0.0000 </r>
       <r>   10.8961    0.0000 </r>
       <r>   11.7644    0.0000 </r>
       <r>   11.7644    0.0000 </r>
       <r>   14.4877    0.0000 </r>
       <r>   14.4877    0.0000 </r>
       <r>   14.4877    0.0000 </r>
       <r>   17.8540    0.0000 </r>
       <r>   27.8018    0.0000 </r>
       <r>   27.8018    0.0000 </r>
       <r>   27.8018    0.0000 </r>
       <r>   29.0469    0.0000 </r>
       <r>   29.0469    0.0000 </r>
       <r>   29.0469    0.0000 </r>
       <r>   29.6192    0.0000 </r>
      </set>
      <set comment="kpoint 2">
       <r>  -35.0260    1.0000 </r>
       <r>  -35.0260    1.0000 </r>
       <r>  -35.0260    1.0000 </r>
       <r>  -34.9648    1.0000 </r>
       <r>  -34.9648    1.0000 </r>
       <r>  -14.9654    1.0000 </r>
       <r>  -14.9646    1.0000 </r>
       <r>  -14.9646    1.0000 </r>
       <r>  -14.8032    1.0000 </r>
       <r>  -14.8032    1.0000 </r>
       <r>   -9.5318    1.0000 </r>
       <r>    2.5499    1.0024 </r>
       <r>    2.9446    0.7807 </r>
       <r>    2.9446    0.7807 </r>
       <r>    4.2678   -0.0000 </r>
       <r>    6.5925   -0.0000 </r>
       <r>    6.6073   -0.0000 </r>
       <r>    6.6073   -0.0000 </r>
       <r>   11.0247    0.0000 </r>
       <r>   11.6590    0.0000 </r>
       <r>   11.6590    0.0000 </r>
       <r>   14.3686    0.0000 </r>
       <r>   14.6743    0.0000 </r>
       <r>   14.6743    0.0000 </r>
       <r>   18.0516    0.0000 </r>
       <r>   27.1147    0.0000 </r>
       <r>   27.2349    0.0000 </r>
       <r>   27.2349    0.0000 </r>
       <r>   28.8872    0.0000 </r>
       <r>   28.8872    0.0000 </r>
       <r>   29.4698    0.0000 </r>
       <r>   29.4700    0.0000 </r>
      </set>
      <set comment="kpoint 3">
       <r>  -35.0260    1.0000 </r>
       <r>  -35.0260    1.0000 </r>
       <r>  -35.0260    1.0000 </r>
       <r>  -34.9648    1.0000 </r>
       <r>  -34.9648    1.0000 </r>
       <r>  -14.9668    1.0000 </r>
       <r>  -14.9637    1.0000 </r>
       <r>  -14.9636    1.0000 </r>
       <r>  -14.8032    1.0000 </r>
       <r>  -14.8032    1.0000 </r>
       <r>   -9.4685    1.0000 </r>
       <r>    1.8250    1.0000 </r>
       <r>    2.8651    0.9771 </r>
       <r>    2.8651    0.9770 </r>
       <r>    4.6850   -0.0000 </r>
       <r>    6.7356   -0.0000 </r>
       <r>    6.7356   -0.0000 </r>
       <r>    6.7543   -0.0000 </r>
       <r>   11.3792    0.0000 </r>
       <r>   11.4195    0.0000 </r>
       <r>   11.4195    0.0000 </r>
       <r>   14.0931    0.0000 </r>
       <r>   15.1612    0.0000 </r>
       <r>   15.1612    0.0000 </r>
       <r>   18.5730    0.0000 </r>
       <r>   26.0084    0.0000 </r>
       <r>   26.0140    0.0000 </r>
       <r>   26.0140    0.0000 </r>
       <r>   28.8380    0.0000 </r>
       <r>   28.8380    0.0000 </r>
       <r>   29.4923    0.0000 </r>
       <r>   29.4923    0.0000 </r>
      </set>
      <set comment="kpoint 4">
       <r>  -35.0260    1.0000 </r>
       <r>  -35.0259    1.0000 </r>
       <r>  -35.0259    1.0000 </r>
       <r>  -34.9648    1.0000 </r>
       <r>  -34.9648    1.0000 </r>
       <r>  -14.9690    1.0000 </r>
       <r>  -14.9621    1.0000 </r>
       <r>  -14.9621    1.0000 </r>
       <r>  -14.8032    1.0000 </r>
       <r>  -14.8032    1.0000 </r>
       <r>   -9.3643    1.0000 </r>
       <r>    1.0542    1.0000 </r>
       <r>    2.7496    1.0340 </r>
       <r>    2.7496    1.0340 </r>
       <r>    4.8638   -0.0000 </r>
       <r>    6.9169   -0.0000 </r>
       <r>    6.9169   -0.0000 </r>
       <r>    7.1539   -0.0000 </r>
       <r>   11.1712    0.0000 </r>
       <r>   11.1712    0.0000 </r>
       <r>   11.8590    0.0000 </r>
       <r>   13.8312    0.0000 </r>
       <r>   15.8359    0.0000 </r>
       <r>   15.8359    0.0000 </r>
       <r>   19.2997    0.0000 </r>
       <r>   24.6703    0.0000 </r>
       <r>   24.6703    0.0000 </r>
       <r>   24.8470    0.0000 </r>
       <r>   28.8926    0.0000 </r>
       <r>   28.8926    0.0000 </r>
       <r>   29.5821    0.0000 </r>
       <r>   29.5821    0.0000 </r>
      </set>
      <set comment="kpoint 5">
       <r>  -35.0259    1.0000 </r>
       <r>  -35.0259    1.0000 </r>
       <r>  -35.0259    1.0000 </r>
       <r>  -34.9648    1.0000 </r>
       <r>  -34.9648    1.0000 </r>
       <r>  -14.9719    1.0000 </r>
       <r>  -14.9602    1.0000 </r>
       <r>  -14.9602    1.0000 </r>
       <r>  -14.8033    1.0000 </r>
       <r>  -14.8033    1.0000 </r>
       <r>   -9.2215    1.0000 </r>
       <r>    0.2857    1.0000 </r>
       <r>    2.6154    1.0080 </r>
       <r>    2.6154    1.0080 </r>
       <r>    4.8325   -0.0000 </r>
       <r>    7.1096   -0.0000 </r>
       <r>    7.1096   -0.0000 </r>
       <r>    7.7598   -0.0000 </r>
       <r>   11.0037    0.0000 </r>
       <r>   11.0037    0.0000 </r>
       <r>   12.2271    0.0000 </r>
       <r>   13.8452    0.0000 </r>
       <r>   16.6289    0.0000 </r>
       <r>   16.6290    0.0000 </r>
       <r>   20.1462    0.0000 </r>
       <r>   23.3385    0.0000 </r>
       <r>   23.3385    0.0000 </r>
       <r>   23.6991    0.0000 </r>
       <r>   28.9937    0.0000 </r>
       <r>   28.9937    0.0000 </r>
       <r>   29.7121    0.0000 </r>
       <r>   29.7122    0.0000 </r>
      </set>
      <set comment="kpoint 6">
       <r>  -35.0259    1.0000 </r>
       <r>  -35.0258    1.0000 </r>
       <r>  -35.0258    1.0000 </r>
       <r>  -34.9647    1.0000 </r>
       <r>  -34.9647    1.0000 </r>
       <r>  -14.9753    1.0000 </r>
       <r>  -14.9580    1.0000 </r>
       <r>  -14.9580    1.0000 </r>
       <r>  -14.8033    1.0000 </r>
       <r>  -14.8033    1.0000 </r>
       <r>   -9.0437    1.0000 </r>
       <r>   -0.4590    1.0000 </r>
       <r>    2.4771    1.0005 </r>
       <r>    2.4771    1.0005 </r>
       <r>    4.7044   -0.0000 </r>
       <r>    7.2688   -0.0000 </r>
       <r>    7.2688   -0.0000 </r>
       <r>    8.4708    0.0000 </r>
       <r>   10.9784    0.0000 </r>
       <r>   10.9784    0.0000 </r>
       <r>   12.2335    0.0000 </r>
       <r>   14.3819    0.0000 </r>
       <r>   17.4980    0.0000 </r>
       <r>   17.4980    0.0000 </r>
       <r>   20.9944    0.0000 </r>
       <r>   22.0614    0.0000 </r>
       <r>   22.0614    0.0000 </r>
       <r>   22.6734    0.0000 </r>
       <r>   29.1215    0.0000 </r>
       <r>   29.1215    0.0000 </r>
       <r>   29.8722    0.0000 </r>
       <r>   29.8723    0.0000 </r>
      </set>
      <set comment="kpoint 7">
       <r>  -35.0259    1.0000 </r>
       <r>  -35.0257    1.0000 </r>
       <r>  -35.0257    1.0000 </r>
       <r>  -34.9647    1.0000 </r>
       <r>  -34.9647    1.0000 </r>
       <r>  -14.9788    1.0000 </r>
       <r>  -14.9557    1.0000 </r>
       <r>  -14.9557    1.0000 </r>
       <r>  -14.8032    1.0000 </r>
       <r>  -14.8032    1.0000 </r>
       <r>   -8.8367    1.0000 </r>
       <r>   -1.1642    1.0000 </r>
       <r>    2.3457    1.0000 </r>
       <r>    2.3457    1.0000 </r>
       <r>    4.5494   -0.0000 </r>
       <r>    7.3618   -0.0000 </r>
       <r>    7.3619   -0.0000 </r>
       <r>    9.2210    0.0000 </r>
       <r>   11.1322    0.0000 </r>
       <r>   11.1322    0.0000 </r>
       <r>   12.0537    0.0000 </r>
       <r>   15.2500    0.0000 </r>
       <r>   18.3787    0.0000 </r>
       <r>   18.3787    0.0000 </r>
       <r>   20.8986    0.0000 </r>
       <r>   20.8987    0.0000 </r>
       <r>   21.0485    0.0000 </r>
       <r>   22.5761    0.0000 </r>
       <r>   29.2568    0.0000 </r>
       <r>   29.2568    0.0000 </r>
       <r>   30.0491    0.0000 </r>
       <r>   30.0493    0.0000 </r>
      </set>
      <set comment="kpoint 8">
       <r>  -35.0258    1.0000 </r>
       <r>  -35.0256    1.0000 </r>
       <r>  -35.0256    1.0000 </r>
       <r>  -34.9646    1.0000 </r>
       <r>  -34.9646    1.0000 </r>
       <r>  -14.9823    1.0000 </r>
       <r>  -14.9535    1.0000 </r>
       <r>  -14.9535    1.0000 </r>
       <r>  -14.8032    1.0000 </r>
       <r>  -14.8032    1.0000 </r>
       <r>   -8.6093    1.0000 </r>
       <r>   -1.8145    1.0000 </r>
       <r>    2.2285    1.0000 </r>
       <r>    2.2285    1.0000 </r>
       <r>    4.3998   -0.0000 </r>
       <r>    7.3843   -0.0000 </r>
       <r>    7.3843   -0.0000 </r>
       <r>    9.9558    0.0000 </r>
       <r>   11.4690    0.0000 </r>
       <r>   11.4690    0.0000 </r>
       <r>   11.8930    0.0000 </r>
       <r>   16.2109    0.0000 </r>
       <r>   18.8518    0.0000 </r>
       <r>   18.8518    0.0000 </r>
       <r>   20.2156    0.0000 </r>
       <r>   20.2661    0.0000 </r>
       <r>   20.2661    0.0000 </r>
       <r>   23.5490    0.0000 </r>
       <r>   29.3554    0.0000 </r>
       <r>   29.3554    0.0000 </r>
       <r>   30.2123    0.0000 </r>
       <r>   30.2332    0.0000 </r>
      </set>
      <set comment="kpoint 9">
       <r>  -35.0258    1.0000 </r>
       <r>  -35.0255    1.0000 </r>
       <r>  -35.0255    1.0000 </r>
       <r>  -34.9646    1.0000 </r>
       <r>  -34.9646    1.0000 </r>
       <r>  -14.9855    1.0000 </r>
       <r>  -14.9515    1.0000 </r>
       <r>  -14.9515    1.0000 </r>
       <r>  -14.8030    1.0000 </r>
       <r>  -14.8030    1.0000 </r>
       <r>   -8.3752    1.0000 </r>
       <r>   -2.3915    1.0000 </r>
       <r>    2.1305    1.0000 </r>
       <r>    2.1305    1.0000 </r>
       <r>    4.2709   -0.0000 </r>
       <r>    7.3576   -0.0000 </r>
       <r>    7.3577   -0.0000 </r>
       <r>   10.5582    0.0000 </r>
       <r>   11.9122    0.0000 </r>
       <r>   11.9649    0.0000 </r>
       <r>   11.9649    0.0000 </r>
       <r>   16.9792    0.0000 </r>
       <r>   18.1315    0.0000 </r>
       <r>   18.1315    0.0000 </r>
       <r>   19.5964    0.0000 </r>
       <r>   20.9482    0.0000 </r>
       <r>   20.9482    0.0000 </r>
       <r>   24.6997    0.0000 </r>
       <r>   28.6333    0.0000 </r>
       <r>   29.2378    0.0000 </r>
       <r>   29.2378    0.0000 </r>
       <r>   30.2646    0.0000 </r>
      </set>
      <set comment="kpoint 10">
       <r>  -35.0257    1.0000 </r>
       <r>  -35.0255    1.0000 </r>
       <r>  -35.0255    1.0000 </r>
       <r>  -34.9646    1.0000 </r>
       <r>  -34.9646    1.0000 </r>
       <r>  -14.9881    1.0000 </r>
       <r>  -14.9499    1.0000 </r>
       <r>  -14.9499    1.0000 </r>
       <r>  -14.8029    1.0000 </r>
       <r>  -14.8029    1.0000 </r>
       <r>   -8.1550    1.0000 </r>
       <r>   -2.8714    1.0000 </r>
       <r>    2.0549    1.0000 </r>
       <r>    2.0549    1.0000 </r>
       <r>    4.1703   -0.0000 </r>
       <r>    7.3110   -0.0000 </r>
       <r>    7.3110   -0.0000 </r>
       <r>   10.8310    0.0000 </r>
       <r>   12.3120    0.0000 </r>
       <r>   12.5857    0.0000 </r>
       <r>   12.5857    0.0000 </r>
       <r>   16.9668    0.0000 </r>
       <r>   17.1264    0.0000 </r>
       <r>   17.1264    0.0000 </r>
       <r>   19.8678    0.0000 </r>
       <r>   22.0361    0.0000 </r>
       <r>   22.0361    0.0000 </r>
       <r>   25.8054    0.0000 </r>
       <r>   27.1707    0.0000 </r>
       <r>   28.4485    0.0000 </r>
       <r>   28.4485    0.0000 </r>
       <r>   30.1970    0.0000 </r>
      </set>
      <set comment="kpoint 11">
       <r>  -35.0257    1.0000 </r>
       <r>  -35.0254    1.0000 </r>
       <r>  -35.0254    1.0000 </r>
       <r>  -34.9646    1.0000 </r>
       <r>  -34.9646    1.0000 </r>
       <r>  -14.9900    1.0000 </r>
       <r>  -14.9488    1.0000 </r>
       <r>  -14.9488    1.0000 </r>
       <r>  -14.8028    1.0000 </r>
       <r>  -14.8028    1.0000 </r>
       <r>   -7.9774    1.0000 </r>
       <r>   -3.2232    1.0000 </r>
       <r>    2.0036    1.0000 </r>
       <r>    2.0036    1.0000 </r>
       <r>    4.1016   -0.0000 </r>
       <r>    7.2679   -0.0000 </r>
       <r>    7.2679   -0.0000 </r>
       <r>   10.8657    0.0000 </r>
       <r>   12.9688    0.0000 </r>
       <r>   13.2938    0.0000 </r>
       <r>   13.2938    0.0000 </r>
       <r>   16.1470    0.0000 </r>
       <r>   16.1470    0.0000 </r>
       <r>   16.3380    0.0000 </r>
       <r>   20.8930    0.0000 </r>
       <r>   23.2243    0.0000 </r>
       <r>   23.2243    0.0000 </r>
       <r>   25.2784    0.0000 </r>
       <r>   27.2103    0.0000 </r>
       <r>   27.2103    0.0000 </r>
       <r>   27.4519    0.0000 </r>
       <r>   30.2272    0.0000 </r>
      </set>
      <set comment="kpoint 12">
       <r>  -35.0257    1.0000 </r>
       <r>  -35.0254    1.0000 </r>
       <r>  -35.0254    1.0000 </r>
       <r>  -34.9646    1.0000 </r>
       <r>  -34.9646    1.0000 </r>
       <r>  -14.9910    1.0000 </r>
       <r>  -14.9482    1.0000 </r>
       <r>  -14.9482    1.0000 </r>
       <r>  -14.8027    1.0000 </r>
       <r>  -14.8027    1.0000 </r>
       <r>   -7.8763    1.0000 </r>
       <r>   -3.4119    1.0000 </r>
       <r>    1.9776    1.0000 </r>
       <r>    1.9776    1.0000 </r>
       <r>    4.0669   -0.0000 </r>
       <r>    7.2430   -0.0000 </r>
       <r>    7.2430   -0.0000 </r>
       <r>   10.8530    0.0000 </r>
       <r>   13.5452    0.0000 </r>
       <r>   13.9960    0.0000 </r>
       <r>   13.9960    0.0000 </r>
       <r>   15.3088    0.0000 </r>
       <r>   15.3088    0.0000 </r>
       <r>   15.7375    0.0000 </r>
       <r>   22.0792    0.0000 </r>
       <r>   23.9589    0.0000 </r>
       <r>   24.4277    0.0000 </r>
       <r>   24.4277    0.0000 </r>
       <r>   25.9432    0.0000 </r>
       <r>   25.9432    0.0000 </r>
       <r>   28.6327    0.0000 </r>
       <r>   30.2687    0.0000 </r>
      </set>
      <set comment="kpoint 13">
       <r>  -35.0260    1.0000 </r>
       <r>  -35.0260    1.0000 </r>
       <r>  -35.0260    1.0000 </r>
       <r>  -34.9648    1.0000 </r>
       <r>  -34.9648    1.0000 </r>
       <r>  -14.9659    1.0000 </r>
       <r>  -14.9643    1.0000 </r>
       <r>  -14.9643    1.0000 </r>
       <r>  -14.8034    1.0000 </r>
       <r>  -14.8030    1.0000 </r>
       <r>   -9.5247    1.0000 </r>
       <r>    2.5175    1.0012 </r>
       <r>    2.8827    0.9470 </r>
       <r>    2.8827    0.9469 </r>
       <r>    4.3861   -0.0000 </r>
       <r>    6.4620   -0.0000 </r>
       <r>    6.6891   -0.0000 </r>
       <r>    6.6891   -0.0000 </r>
       <r>   11.0655    0.0000 </r>
       <r>   11.4635    0.0000 </r>
       <r>   11.7972    0.0000 </r>
       <r>   14.5477    0.0000 </r>
       <r>   14.5477    0.0000 </r>
       <r>   14.6859    0.0000 </r>
       <r>   18.1252    0.0000 </r>
       <r>   26.8804    0.0000 </r>
       <r>   26.8804    0.0000 </r>
       <r>   27.8033    0.0000 </r>
       <r>   28.3129    0.0000 </r>
       <r>   28.4178    0.0000 </r>
       <r>   29.4933    0.0000 </r>
       <r>   29.4934    0.0000 </r>
      </set>
      <set comment="kpoint 14">
       <r>  -35.0260    1.0000 </r>
       <r>  -35.0260    1.0000 </r>
       <r>  -35.0260    1.0000 </r>
       <r>  -34.9648    1.0000 </r>
       <r>  -34.9648    1.0000 </r>
       <r>  -14.9672    1.0000 </r>
       <r>  -14.9635    1.0000 </r>
       <r>  -14.9634    1.0000 </r>
       <r>  -14.8037    1.0000 </r>
       <r>  -14.8028    1.0000 </r>
       <r>   -9.4754    1.0000 </r>
       <r>    1.9672    1.0000 </r>
       <r>    2.7758    1.0354 </r>
       <r>    2.8275    1.0178 </r>
       <r>    4.7673   -0.0000 </r>
       <r>    6.4213   -0.0000 </r>
       <r>    6.8490   -0.0000 </r>
       <r>    6.8670   -0.0000 </r>
       <r>   11.1497    0.0000 </r>
       <r>   11.3535    0.0000 </r>
       <r>   11.7321    0.0000 </r>
       <r>   14.3505    0.0000 </r>
       <r>   14.7891    0.0000 </r>
       <r>   15.1536    0.0000 </r>
       <r>   18.5529    0.0000 </r>
       <r>   25.8955    0.0000 </r>
       <r>   25.9361    0.0000 </r>
       <r>   27.2061    0.0000 </r>
       <r>   28.0078    0.0000 </r>
       <r>   28.0361    0.0000 </r>
       <r>   29.6305    0.0000 </r>
       <r>   29.8611    0.0000 </r>
      </set>
      <set comment="kpoint 15">
       <r>  -35.0260    1.0000 </r>
       <r>  -35.0259    1.0000 </r>
       <r>  -35.0259    1.0000 </r>
       <r>  -34.9648    1.0000 </r>
       <r>  -34.9648    1.0000 </r>
       <r>  -14.9692    1.0000 </r>
       <r>  -14.9623    1.0000 </r>
       <r>  -14.9619    1.0000 </r>
       <r>  -14.8039    1.0000 </r>
       <r>  -14.8026    1.0000 </r>
       <r>   -9.3848    1.0000 </r>
       <r>    1.2522    1.0000 </r>
       <r>    2.6412    1.0118 </r>
       <r>    2.7491    1.0339 </r>
       <r>    5.0174   -0.0000 </r>
       <r>    6.5151   -0.0000 </r>
       <r>    7.0568   -0.0000 </r>
       <r>    7.1902   -0.0000 </r>
       <r>   10.8578    0.0000 </r>
       <r>   11.5551    0.0000 </r>
       <r>   11.7969    0.0000 </r>
       <r>   14.0566    0.0000 </r>
       <r>   15.3185    0.0000 </r>
       <r>   15.8385    0.0000 </r>
       <r>   19.2184    0.0000 </r>
       <r>   24.6043    0.0000 </r>
       <r>   24.7469    0.0000 </r>
       <r>   26.0482    0.0000 </r>
       <r>   27.9544    0.0000 </r>
       <r>   28.0605    0.0000 </r>
       <r>   29.7466    0.0000 </r>
       <r>   30.0195    0.0000 </r>
      </set>
      <set comment="kpoint 16">
       <r>  -35.0260    1.0000 </r>
       <r>  -35.0259    1.0000 </r>
       <r>  -35.0258    1.0000 </r>
       <r>  -34.9648    1.0000 </r>
       <r>  -34.9647    1.0000 </r>
       <r>  -14.9718    1.0000 </r>
       <r>  -14.9607    1.0000 </r>
       <r>  -14.9600    1.0000 </r>
       <r>  -14.8041    1.0000 </r>
       <r>  -14.8025    1.0000 </r>
       <r>   -9.2547    1.0000 </r>
       <r>    0.5052    1.0000 </r>
       <r>    2.4961    1.0007 </r>
       <r>    2.6305    1.0101 </r>
       <r>    5.0450   -0.0000 </r>
       <r>    6.7220   -0.0000 </r>
       <r>    7.2729   -0.0000 </r>
       <r>    7.6735   -0.0000 </r>
       <r>   10.6495    0.0000 </r>
       <r>   11.3958    0.0000 </r>
       <r>   12.2530    0.0000 </r>
       <r>   13.9128    0.0000 </r>
       <r>   16.0263    0.0000 </r>
       <r>   16.6381    0.0000 </r>
       <r>   20.0266    0.0000 </r>
       <r>   23.2776    0.0000 </r>
       <r>   23.5157    0.0000 </r>
       <r>   24.8246    0.0000 </r>
       <r>   28.0166    0.0000 </r>
       <r>   28.1609    0.0000 </r>
       <r>   29.8840    0.0000 </r>
       <r>   30.1317    0.0000 </r>
      </set>
      <set comment="kpoint 17">
       <r>  -35.0259    1.0000 </r>
       <r>  -35.0258    1.0000 </r>
       <r>  -35.0258    1.0000 </r>
       <r>  -34.9648    1.0000 </r>
       <r>  -34.9647    1.0000 </r>
       <r>  -14.9749    1.0000 </r>
       <r>  -14.9587    1.0000 </r>
       <r>  -14.9578    1.0000 </r>
       <r>  -14.8042    1.0000 </r>
       <r>  -14.8024    1.0000 </r>
       <r>   -9.0884    1.0000 </r>
       <r>   -0.2343    1.0000 </r>
       <r>    2.3540    1.0000 </r>
       <r>    2.4886    1.0006 </r>
       <r>    4.9431   -0.0000 </r>
       <r>    6.9444   -0.0000 </r>
       <r>    7.4530   -0.0000 </r>
       <r>    8.2623   -0.0000 </r>
       <r>   10.5946    0.0000 </r>
       <r>   11.3461    0.0000 </r>
       <r>   12.4169    0.0000 </r>
       <r>   14.2261    0.0000 </r>
       <r>   16.8431    0.0000 </r>
       <r>   17.5167    0.0000 </r>
       <r>   20.8870    0.0000 </r>
       <r>   21.9882    0.0000 </r>
       <r>   22.3282    0.0000 </r>
       <r>   23.6457    0.0000 </r>
       <r>   28.1321    0.0000 </r>
       <r>   28.2999    0.0000 </r>
       <r>   30.0486    0.0000 </r>
       <r>   30.2561    0.0000 </r>
      </set>
      <set comment="kpoint 18">
       <r>  -35.0259    1.0000 </r>
       <r>  -35.0257    1.0000 </r>
       <r>  -35.0257    1.0000 </r>
       <r>  -34.9647    1.0000 </r>
       <r>  -34.9646    1.0000 </r>
       <r>  -14.9783    1.0000 </r>
       <r>  -14.9566    1.0000 </r>
       <r>  -14.9555    1.0000 </r>
       <r>  -14.8043    1.0000 </r>
       <r>  -14.8023    1.0000 </r>
       <r>   -8.8907    1.0000 </r>
       <r>   -0.9445    1.0000 </r>
       <r>    2.2246    1.0000 </r>
       <r>    2.3395    1.0000 </r>
       <r>    4.7974   -0.0000 </r>
       <r>    7.1105   -0.0000 </r>
       <r>    7.5616   -0.0000 </r>
       <r>    8.8905    0.0000 </r>
       <r>   10.7459    0.0000 </r>
       <r>   11.4610    0.0000 </r>
       <r>   12.2880    0.0000 </r>
       <r>   14.9833    0.0000 </r>
       <r>   17.7104    0.0000 </r>
       <r>   18.4316    0.0000 </r>
       <r>   20.7839    0.0000 </r>
       <r>   21.0036    0.0000 </r>
       <r>   21.7621    0.0000 </r>
       <r>   22.7927    0.0000 </r>
       <r>   28.2763    0.0000 </r>
       <r>   28.4637    0.0000 </r>
       <r>   30.2366    0.0000 </r>
       <r>   30.3710    0.0000 </r>
      </set>
      <set comment="kpoint 19">
       <r>  -35.0259    1.0000 </r>
       <r>  -35.0256    1.0000 </r>
       <r>  -35.0256    1.0000 </r>
       <r>  -34.9647    1.0000 </r>
       <r>  -34.9646    1.0000 </r>
       <r>  -14.9817    1.0000 </r>
       <r>  -14.9544    1.0000 </r>
       <r>  -14.9533    1.0000 </r>
       <r>  -14.8042    1.0000 </r>
       <r>  -14.8022    1.0000 </r>
       <r>   -8.6694    1.0000 </r>
       <r>   -1.6081    1.0000 </r>
       <r>    2.1145    1.0000 </r>
       <r>    2.1953    1.0000 </r>
       <r>    4.6489   -0.0000 </r>
       <r>    7.1945   -0.0000 </r>
       <r>    7.5886   -0.0000 </r>
       <r>    9.5181    0.0000 </r>
       <r>   11.1103    0.0000 </r>
       <r>   11.7575    0.0000 </r>
       <r>   12.1104    0.0000 </r>
       <r>   15.9104    0.0000 </r>
       <r>   18.4041    0.0000 </r>
       <r>   19.1410    0.0000 </r>
       <r>   19.8821    0.0000 </r>
       <r>   20.2140    0.0000 </r>
       <r>   21.1539    0.0000 </r>
       <r>   23.3723    0.0000 </r>
       <r>   28.4273    0.0000 </r>
       <r>   28.6333    0.0000 </r>
       <r>   30.3072    0.0000 </r>
       <r>   30.4358    0.0000 </r>
      </set>
      <set comment="kpoint 20">
       <r>  -35.0258    1.0000 </r>
       <r>  -35.0256    1.0000 </r>
       <r>  -35.0255    1.0000 </r>
       <r>  -34.9647    1.0000 </r>
       <r>  -34.9646    1.0000 </r>
       <r>  -14.9849    1.0000 </r>
       <r>  -14.9523    1.0000 </r>
       <r>  -14.9513    1.0000 </r>
       <r>  -14.8040    1.0000 </r>
       <r>  -14.8022    1.0000 </r>
       <r>   -8.4361    1.0000 </r>
       <r>   -2.2070    1.0000 </r>
       <r>    2.0278    1.0000 </r>
       <r>    2.0645    1.0000 </r>
       <r>    4.5162   -0.0000 </r>
       <r>    7.2118   -0.0000 </r>
       <r>    7.5525   -0.0000 </r>
       <r>   10.1182    0.0000 </r>
       <r>   11.5804    0.0000 </r>
       <r>   12.0760    0.0000 </r>
       <r>   12.2184    0.0000 </r>
       <r>   16.7387    0.0000 </r>
       <r>   17.9860    0.0000 </r>
       <r>   18.7293    0.0000 </r>
       <r>   19.9705    0.0000 </r>
       <r>   20.2175    0.0000 </r>
       <r>   21.0453    0.0000 </r>
       <r>   24.4651    0.0000 </r>
       <r>   28.5466    0.0000 </r>
       <r>   28.7149    0.0000 </r>
       <r>   29.0565    0.0000 </r>
       <r>   30.1508    0.0000 </r>
      </set>
      <set comment="kpoint 21">
       <r>  -35.0258    1.0000 </r>
       <r>  -35.0255    1.0000 </r>
       <r>  -35.0255    1.0000 </r>
       <r>  -34.9646    1.0000 </r>
       <r>  -34.9646    1.0000 </r>
       <r>  -14.9877    1.0000 </r>
       <r>  -14.9506    1.0000 </r>
       <r>  -14.9496    1.0000 </r>
       <r>  -14.8038    1.0000 </r>
       <r>  -14.8022    1.0000 </r>
       <r>   -8.2090    1.0000 </r>
       <r>   -2.7190    1.0000 </r>
       <r>    1.9526    1.0000 </r>
       <r>    1.9670    1.0000 </r>
       <r>    4.4085   -0.0000 </r>
       <r>    7.1959   -0.0000 </r>
       <r>    7.4840   -0.0000 </r>
       <r>   10.6135    0.0000 </r>
       <r>   11.8586    0.0000 </r>
       <r>   12.5354    0.0000 </r>
       <r>   12.8098    0.0000 </r>
       <r>   16.8141    0.0000 </r>
       <r>   17.0098    0.0000 </r>
       <r>   18.1670    0.0000 </r>
       <r>   19.7199    0.0000 </r>
       <r>   21.2373    0.0000 </r>
       <r>   22.0507    0.0000 </r>
       <r>   25.6072    0.0000 </r>
       <r>   27.4774    0.0000 </r>
       <r>   28.4642    0.0000 </r>
       <r>   28.5119    0.0000 </r>
       <r>   29.4836    0.0000 </r>
      </set>
      <set comment="kpoint 22">
       <r>  -35.0257    1.0000 </r>
       <r>  -35.0255    1.0000 </r>
       <r>  -35.0254    1.0000 </r>
       <r>  -34.9646    1.0000 </r>
       <r>  -34.9645    1.0000 </r>
       <r>  -14.9897    1.0000 </r>
       <r>  -14.9492    1.0000 </r>
       <r>  -14.9485    1.0000 </r>
       <r>  -14.8035    1.0000 </r>
       <r>  -14.8023    1.0000 </r>
       <r>   -8.0141    1.0000 </r>
       <r>   -3.1149    1.0000 </r>
       <r>    1.8633    1.0000 </r>
       <r>    1.9332    1.0000 </r>
       <r>    4.3303   -0.0000 </r>
       <r>    7.1766   -0.0000 </r>
       <r>    7.4098   -0.0000 </r>
       <r>   10.8652    0.0000 </r>
       <r>   12.2600    0.0000 </r>
       <r>   13.2556    0.0000 </r>
       <r>   13.4890    0.0000 </r>
       <r>   16.0316    0.0000 </r>
       <r>   16.1154    0.0000 </r>
       <r>   17.4177    0.0000 </r>
       <r>   20.5032    0.0000 </r>
       <r>   22.3966    0.0000 </r>
       <r>   23.2232    0.0000 </r>
       <r>   25.6384    0.0000 </r>
       <r>   27.1455    0.0000 </r>
       <r>   27.3210    0.0000 </r>
       <r>   27.9170    0.0000 </r>
       <r>   29.4574    0.0000 </r>
      </set>
      <set comment="kpoint 23">
       <r>  -35.0257    1.0000 </r>
       <r>  -35.0254    1.0000 </r>
       <r>  -35.0254    1.0000 </r>
       <r>  -34.9646    1.0000 </r>
       <r>  -34.9645    1.0000 </r>
       <r>  -14.9910    1.0000 </r>
       <r>  -14.9483    1.0000 </r>
       <r>  -14.9479    1.0000 </r>
       <r>  -14.8032    1.0000 </r>
       <r>  -14.8025    1.0000 </r>
       <r>   -7.8844    1.0000 </r>
       <r>   -3.3601    1.0000 </r>
       <r>    1.7992    1.0000 </r>
       <r>    1.9269    1.0000 </r>
       <r>    4.2842   -0.0000 </r>
       <r>    7.1728   -0.0000 </r>
       <r>    7.3479   -0.0000 </r>
[...]
        <r>  0.7186  0.0000  0.0007  0.0002  0.0001  0.0001  0.0001  0.0000  0.0001 </r>
       </set>
       <set comment="band 12">
        <r>  0.4676  0.0001  0.0009  0.0025  0.0005  0.0002  0.0004  0.0000  0.0006 </r>
        <r>  0.0080  0.0046  0.1137  0.0947  0.0103  0.0091  0.0000  0.0003  0.0000 </r>
       </set>
       <set comment="band 13">
        <r>  0.0021  0.0925  0.0286  0.0355  0.0002  0.0009  0.0080  0.0028  0.0032 </r>
        <r>  0.0009  0.0882  0.1192  0.1600  0.0003  0.0002  0.0025  0.0002  0.0011 </r>
       </set>
       <set comment="band 14">
        <r>  0.0012  0.0494  0.0665  0.0666  0.0006  0.0003  0.0048  0.0039  0.0010 </r>
        <r>  0.0001  0.2515  0.0669  0.0516  0.0002  0.0003  0.0073  0.0027  0.0020 </r>
       </set>
       <set comment="band 15">
        <r>  0.0837  0.0020  0.0113  0.0027  0.0429  0.0342  0.0055  0.0002  0.0097 </r>
        <r>  0.0029  0.1413  0.0604  0.0658  0.0225  0.0137  0.0485  0.0010  0.0113 </r>
       </set>
       <set comment="band 16">
        <r>  0.0955  0.0226  0.0351  0.0326  0.0201  0.0135  0.0120  0.0018  0.0109 </r>
        <r>  0.0259  0.0670  0.0696  0.0718  0.0364  0.0284  0.0301  0.0002  0.0155 </r>
       </set>
       <set comment="band 17">
        <r>  0.0304  0.0823  0.0594  0.0636  0.0161  0.0081  0.0234  0.0051  0.0047 </r>
        <r>  0.0328  0.0229  0.0230  0.0365  0.0723  0.0343  0.0160  0.0000  0.0232 </r>
       </set>
       <set comment="band 18">
        <r>  0.0149  0.0980  0.0562  0.0639  0.0021  0.0282  0.0177  0.0085  0.0164 </r>
        <r>  0.0324  0.0177  0.0348  0.0061  0.0251  0.0854  0.0014  0.0000  0.0425 </r>
       </set>
       <set comment="band 19">
        <r>  0.0021  0.1063  0.0422  0.0671  0.0113  0.0184  0.0047  0.0837  0.0060 </r>
        <r>  0.0057  0.0151  0.0748  0.0975  0.0039  0.0080  0.0049  0.1574  0.0108 </r>
       </set>
       <set comment="band 20">
        <r>  0.0082  0.0550  0.1019  0.0229  0.0282  0.0131  0.0059  0.0626  0.0283 </r>
        <r>  0.0099  0.0172  0.0948  0.0238  0.0125  0.0026  0.0119  0.2128  0.0226 </r>
       </set>
       <set comment="band 21">
        <r>  0.0107  0.0174  0.0219  0.1039  0.0019  0.0148  0.0192  0.0180  0.0553 </r>
        <r>  0.0225  0.0070  0.0179  0.0985  0.0042  0.0128  0.0294  0.0676  0.0931 </r>
       </set>
       <set comment="band 22">
        <r>  0.0052  0.0115  0.0890  0.0580  0.0041  0.0025  0.0136  0.0021  0.0455 </r>
        <r>  0.0173  0.0026  0.0791  0.0443  0.0060  0.0096  0.0291  0.0137  0.1527 </r>
       </set>
       <set comment="band 23">
        <r>  0.0182  0.0025  0.0071  0.0184  0.0020  0.0027  0.0198  0.0445  0.0242 </r>
        <r>  0.0068  0.0018  0.0078  0.0034  0.0072  0.0190  0.1034  0.0433  0.0413 </r>
       </set>
       <set comment="band 24">
        <r>  0.0177  0.0015  0.0128  0.0216  0.0106  0.0049  0.0322  0.0722  0.0029 </r>
        <r>  0.0196  0.0017  0.0047  0.0033  0.0357  0.0074  0.0858  0.0141  0.0102 </r>
       </set>
       <set comment="band 25">
        <r>  0.0186  0.0100  0.0631  0.0151  0.0014  0.0021  0.0008  0.0896  0.0130 </r>
        <r>  0.0027  0.0268  0.0175  0.0213  0.0055  0.0829  0.0533  0.0067  0.0407 </r>
       </set>
       <set comment="band 26">
        <r>  0.0231  0.0019  0.0614  0.0516  0.0010  0.0207  0.0161  0.0051  0.0682 </r>
        <r>  0.0047  0.0825  0.0106  0.0005  0.0217  0.0629  0.0531  0.0649  0.0303 </r>
       </set>
       <set comment="band 27">
        <r>  0.0334  0.0090  0.0183  0.0518  0.0021  0.0058  0.0147  0.0327  0.0297 </r>
        <r>  0.0060  0.0133  0.0129  0.0135  0.0595  0.0027  0.0433  0.0087  0.0001 </r>
       </set>
       <set comment="band 28">
        <r>  0.0216  0.0118  0.0299  0.0272  0.0430  0.0184  0.0710  0.0077  0.0444 </r>
        <r>  0.0176  0.0196  0.0089  0.0144  0.1713  0.1669  0.0197  0.0190  0.0025 </r>
       </set>
       <set comment="band 29">
        <r>  0.0013  0.0216  0.0377  0.0242  0.0058  0.0133  0.1208  0.0411  0.0396 </r>
        <r>  0.0007  0.0384  0.0286  0.0364  0.1247  0.0747  0.0463  0.0147  0.0313 </r>
       </set>
       <set comment="band 30">
        <r>  0.0007  0.0247  0.0255  0.0210  0.1523  0.2435  0.0169  0.0013  0.0056 </r>
        <r>  0.0394  0.0052  0.0043  0.0053  0.0270  0.0400  0.0437  0.0002  0.0585 </r>
       </set>
       <set comment="band 31">
        <r>  0.0076  0.0979  0.0176  0.0399  0.1352  0.0193  0.0233  0.0016  0.0163 </r>
        <r>  0.0154  0.0150  0.0004  0.0001  0.0761  0.0192  0.0052  0.0172  0.0250 </r>
       </set>
       <set comment="band 32">
        <r>  0.0057  0.0697  0.0204  0.0175  0.0581  0.0640  0.0575  0.0035  0.0008 </r>
        <r>  0.0069  0.0166  0.0002  0.0007  0.0237  0.0406  0.0377  0.0161  0.0120 </r>
       </set>
      </set>
      <set comment="kpoint 363">
       <set comment="band 1">
        <r>  0.0001  0.0001  0.0000  0.0000  0.0000  0.0000  0.0000  0.0001  0.0000 </r>
        <r>  0.0000  0.0000  0.0000  0.0000  0.9037  0.0950  0.0000  0.0002  0.0000 </r>
       </set>
       <set comment="band 2">
        <r>  0.0001  0.0000  0.0000  0.0000  0.0000  0.0000  0.0000  0.0001  0.0000 </r>
        <r>  0.0000  0.0000  0.0000  0.0000  0.0950  0.9038  0.0000  0.0000  0.0000 </r>
       </set>
       <set comment="band 3">
        <r>  0.0000  0.0000  0.0000  0.0000  0.0001  0.0001  0.0000  0.0000  0.0000 </r>
        <r>  0.0000  0.0000  0.0000  0.0000  0.0001  0.0001  0.0000  0.9987  0.0000 </r>
       </set>
       <set comment="band 4">
        <r>  0.0000  0.0000  0.0000  0.0000  0.0000  0.0000  0.0000  0.0000  0.0000 </r>
        <r>  0.0000  0.0000  0.0000  0.0000  0.0000  0.0000  0.8786  0.0000  0.1204 </r>
       </set>
       <set comment="band 5">
        <r>  0.0000  0.0000  0.0000  0.0000  0.0000  0.0000  0.0000  0.0000  0.0000 </r>
        <r>  0.0000  0.0000  0.0000  0.0000  0.0000  0.0000  0.1204  0.0000  0.8787 </r>
       </set>
       <set comment="band 6">
        <r>  0.0000  0.0000  0.0002  0.0001  0.6317  0.3459  0.0000  0.0011  0.0000 </r>
        <r>  0.0127  0.0000  0.0000  0.0000  0.0000  0.0000  0.0001  0.0000  0.0000 </r>
       </set>
       <set comment="band 7">
        <r>  0.0000  0.0000  0.0000  0.0000  0.3510  0.6394  0.0000  0.0001  0.0001 </r>
        <r>  0.0000  0.0017  0.0000  0.0000  0.0000  0.0000  0.0002  0.0013  0.0001 </r>
       </set>
       <set comment="band 8">
        <r>  0.0000  0.0001  0.0000  0.0000  0.0005  0.0007  0.0013  0.9888  0.0004 </r>
        <r>  0.0000  0.0000  0.0008  0.0011  0.0005  0.0008  0.0000  0.0000  0.0000 </r>
       </set>
       <set comment="band 9">
        <r>  0.0000  0.0000  0.0000  0.0000  0.0000  0.0001  0.8697  0.0017  0.1194 </r>
        <r>  0.0000  0.0000  0.0004  0.0002  0.0002  0.0001  0.0000  0.0000  0.0000 </r>
       </set>
       <set comment="band 10">
        <r>  0.0000  0.0000  0.0000  0.0000  0.0000  0.0000  0.1200  0.0000  0.8725 </r>
        <r>  0.0000  0.0000  0.0001  0.0001  0.0000  0.0001  0.0000  0.0000  0.0000 </r>
       </set>
       <set comment="band 11">
        <r>  0.0020  0.0001  0.0320  0.0203  0.0190  0.0131  0.0000  0.0001  0.0000 </r>
        <r>  0.7255  0.0000  0.0002  0.0000  0.0000  0.0000  0.0001  0.0000  0.0001 </r>
       </set>
       <set comment="band 12">
        <r>  0.4758  0.0000  0.0001  0.0006  0.0002  0.0000  0.0008  0.0000  0.0004 </r>
        <r>  0.0022  0.0008  0.1341  0.0784  0.0115  0.0083  0.0000  0.0001  0.0000 </r>
       </set>
       <set comment="band 13">
        <r>  0.0017  0.1204  0.0116  0.0182  0.0000  0.0005  0.0105  0.0048  0.0034 </r>
        <r>  0.0003  0.0442  0.1281  0.2097  0.0004  0.0002  0.0012  0.0002  0.0005 </r>
       </set>
       <set comment="band 14">
        <r>  0.0001  0.0225  0.0731  0.0948  0.0002  0.0008  0.0023  0.0016  0.0004 </r>
        <r>  0.0001  0.2984  0.0286  0.0268  0.0000  0.0000  0.0088  0.0027  0.0023 </r>
       </set>
       <set comment="band 15">
        <r>  0.0108  0.0012  0.0551  0.0114  0.0755  0.0225  0.0011  0.0000  0.0008 </r>
        <r>  0.0199  0.1774  0.0073  0.0101  0.0062  0.0003  0.0880  0.0010  0.0012 </r>
       </set>
       <set comment="band 16">
        <r>  0.1683  0.0362  0.0043  0.0019  0.0038  0.0002  0.0371  0.0028  0.0056 </r>
        <r>  0.0033  0.0083  0.1116  0.1392  0.1110  0.0019  0.0059  0.0000  0.0000 </r>
       </set>
       <set comment="band 17">
        <r>  0.0152  0.0730  0.0620  0.0919  0.0002  0.0336  0.0093  0.0051  0.0143 </r>
        <r>  0.0452  0.0332  0.0235  0.0057  0.0178  0.0657  0.0002  0.0002  0.0528 </r>
       </set>
       <set comment="band 18">
        <r>  0.0295  0.0968  0.0409  0.0561  0.0000  0.0293  0.0117  0.0073  0.0208 </r>
        <r>  0.0254  0.0315  0.0526  0.0150  0.0159  0.0996  0.0000  0.0000  0.0397 </r>
       </set>
       <set comment="band 19">
        <r>  0.0000  0.1252  0.0251  0.0600  0.0074  0.0174  0.0028  0.1115  0.0000 </r>
        <r>  0.0008  0.0129  0.0831  0.1271  0.0035  0.0083  0.0018  0.1392  0.0027 </r>
       </set>
       <set comment="band 20">
        <r>  0.0030  0.0565  0.1002  0.0693  0.0286  0.0261  0.0003  0.0536  0.0086 </r>
        <r>  0.0029  0.0262  0.0702  0.0300  0.0065  0.0001  0.0009  0.3048  0.0043 </r>
       </set>
       <set comment="band 21">
        <r>  0.0180  0.0020  0.0259  0.0724  0.0017  0.0074  0.0216  0.0068  0.0857 </r>
        <r>  0.0256  0.0021  0.0423  0.0807  0.0083  0.0188  0.0297  0.0155  0.1084 </r>
       </set>
       <set comment="band 22">
        <r>  0.0116  0.0030  0.0975  0.0414  0.0077  0.0016  0.0122  0.0000  0.0575 </r>
        <r>  0.0309  0.0000  0.0784  0.0227  0.0074  0.0126  0.0275  0.0018  0.1848 </r>
       </set>
       <set comment="band 23">
        <r>  0.0043  0.0021  0.0114  0.0314  0.0004  0.0010  0.0086  0.0305  0.0069 </r>
        <r>  0.0000  0.0024  0.0040  0.0039  0.0008  0.0143  0.1672  0.0521  0.0318 </r>
       </set>
       <set comment="band 24">
        <r>  0.0044  0.0080  0.0095  0.0021  0.0062  0.0029  0.0525  0.1485  0.0004 </r>
        <r>  0.0111  0.0001  0.0125  0.0140  0.0356  0.0351  0.0605  0.0065  0.0007 </r>
       </set>
       <set comment="band 25">
        <r>  0.0321  0.0020  0.0666  0.0302  0.0037  0.0045  0.0001  0.0392  0.0021 </r>
        <r>  0.0125  0.0084  0.0031  0.0110  0.0012  0.0677  0.0119  0.0000  0.0356 </r>
       </set>
       <set comment="band 26">
        <r>  0.0095  0.0098  0.0999  0.0269  0.0020  0.0217  0.0041  0.0015  0.1076 </r>
        <r>  0.0038  0.0713  0.0249  0.0003  0.0000  0.0207  0.0235  0.0445  0.0386 </r>
       </set>
       <set comment="band 27">
        <r>  0.0547  0.0012  0.0001  0.0617  0.0094  0.0372  0.0214  0.0011  0.0018 </r>
        <r>  0.0248  0.0313  0.0017  0.0006  0.0372  0.0417  0.0623  0.0222  0.0118 </r>
       </set>
       <set comment="band 28">
        <r>  0.0139  0.0141  0.0645  0.0204  0.0000  0.0138  0.0296  0.0195  0.0986 </r>
        <r>  0.0006  0.0523  0.0397  0.0027  0.0198  0.2297  0.0429  0.0231  0.0400 </r>
       </set>
       <set comment="band 29">
        <r>  0.0120  0.0204  0.0000  0.0048  0.0093  0.0026  0.1626  0.0464  0.0028 </r>
        <r>  0.0003  0.0000  0.0061  0.0692  0.3782  0.0202  0.0012  0.0011  0.0011 </r>
       </set>
       <set comment="band 30">
        <r>  0.0001  0.0132  0.0095  0.0479  0.1618  0.2575  0.0095  0.0018  0.0001 </r>
        <r>  0.0404  0.0287  0.0003  0.0013  0.0006  0.0057  0.1136  0.0053  0.0362 </r>
       </set>
       <set comment="band 31">
        <r>  0.0111  0.1167  0.0253  0.0389  0.1151  0.0072  0.0378  0.0013  0.0103 </r>
        <r>  0.0206  0.0078  0.0001  0.0000  0.0768  0.0291  0.0052  0.0236  0.0136 </r>
       </set>
       <set comment="band 32">
        <r>  0.0006  0.0896  0.0365  0.0224  0.1014  0.0552  0.0516  0.0026  0.0025 </r>
        <r>  0.0068  0.0127  0.0003  0.0004  0.0314  0.0456  0.0101  0.0176  0.0004 </r>
       </set>
      </set>
      <set comment="kpoint 364">
       <set comment="band 1">
        <r>  0.0000  0.0001  0.0000  0.0000  0.0000  0.0000  0.0000  0.0002  0.0000 </r>
        <r>  0.0000  0.0000  0.0000  0.0000  0.7055  0.2931  0.0000  0.0002  0.0000 </r>
       </set>
       <set comment="band 2">
        <r>  0.0002  0.0000  0.0000  0.0000  0.0000  0.0000  0.0000  0.0000  0.0000 </r>
        <r>  0.0000  0.0000  0.0000  0.0000  0.2933  0.7055  0.0000  0.0001  0.0000 </r>
       </set>
       <set comment="band 3">
        <r>  0.0000  0.0000  0.0000  0.0000  0.0001  0.0001  0.0000  0.0000  0.0000 </r>
        <r>  0.0000  0.0000  0.0000  0.0000  0.0001  0.0003  0.0000  0.9986  0.0000 </r>
       </set>
       <set comment="band 4">
        <r>  0.0000  0.0000  0.0000  0.0000  0.0000  0.0000  0.0000  0.0000  0.0000 </r>
        <r>  0.0000  0.0000  0.0000  0.0000  0.0000  0.0000  0.7985  0.0000  0.2004 </r>
       </set>
       <set comment="band 5">
        <r>  0.0000  0.0000  0.0000  0.0000  0.0000  0.0000  0.0000  0.0000  0.0000 </r>
        <r>  0.0000  0.0000  0.0000  0.0000  0.0000  0.0000  0.2004  0.0000  0.7986 </r>
       </set>
       <set comment="band 6">
        <r>  0.0000  0.0000  0.0002  0.0001  0.5377  0.4394  0.0000  0.0015  0.0000 </r>
        <r>  0.0128  0.0000  0.0000  0.0000  0.0000  0.0000  0.0000  0.0000  0.0000 </r>
       </set>
       <set comment="band 7">
        <r>  0.0000  0.0000  0.0000  0.0000  0.4456  0.5448  0.0001  0.0000  0.0000 </r>
        <r>  0.0000  0.0017  0.0000  0.0000  0.0000  0.0000  0.0002  0.0013  0.0001 </r>
       </set>
       <set comment="band 8">
        <r>  0.0000  0.0001  0.0000  0.0000  0.0007  0.0009  0.0013  0.9884  0.0004 </r>
        <r>  0.0000  0.0000  0.0009  0.0010  0.0006  0.0007  0.0000  0.0000  0.0000 </r>
       </set>
       <set comment="band 9">
        <r>  0.0000  0.0000  0.0000  0.0000  0.0001  0.0000  0.7900  0.0018  0.1990 </r>
        <r>  0.0000  0.0000  0.0003  0.0002  0.0002  0.0001  0.0000  0.0000  0.0000 </r>
       </set>
       <set comment="band 10">
        <r>  0.0000  0.0000  0.0000  0.0000  0.0000  0.0000  0.1997  0.0000  0.7928 </r>
        <r>  0.0000  0.0000  0.0001  0.0001  0.0000  0.0000  0.0000  0.0000  0.0000 </r>
       </set>
       <set comment="band 11">
        <r>  0.0015  0.0002  0.0280  0.0243  0.0172  0.0151  0.0000  0.0001  0.0000 </r>
        <r>  0.7266  0.0000  0.0000  0.0001  0.0000  0.0000  0.0001  0.0000  0.0001 </r>
       </set>
       <set comment="band 12">
        <r>  0.4783  0.0000  0.0006  0.0001  0.0000  0.0001  0.0004  0.0000  0.0006 </r>
        <r>  0.0014  0.0010  0.1151  0.0967  0.0105  0.0096  0.0000  0.0001  0.0000 </r>
       </set>
       <set comment="band 13">
        <r>  0.0000  0.1135  0.0200  0.0179  0.0003  0.0000  0.0107  0.0044  0.0030 </r>
        <r>  0.0001  0.0571  0.1575  0.1638  0.0000  0.0000  0.0019  0.0003  0.0004 </r>
       </set>
       <set comment="band 14">
        <r>  0.0006  0.0285  0.0736  0.0863  0.0002  0.0008  0.0021  0.0018  0.0012 </r>
        <r>  0.0001  0.2836  0.0254  0.0463  0.0001  0.0001  0.0080  0.0026  0.0028 </r>
       </set>
       <set comment="band 15">
        <r>  0.0576  0.0074  0.0260  0.0016  0.0545  0.0260  0.0097  0.0006  0.0031 </r>
        <r>  0.0079  0.1547  0.0411  0.0446  0.0297  0.0021  0.0645  0.0010  0.0040 </r>
       </set>
       <set comment="band 16">
        <r>  0.1477  0.0042  0.0002  0.0024  0.0170  0.0199  0.0120  0.0003  0.0129 </r>
        <r>  0.0005  0.0836  0.1096  0.1246  0.0547  0.0175  0.0220  0.0003  0.0104 </r>
       </set>
       <set comment="band 17">
        <r>  0.0160  0.0581  0.0886  0.1036  0.0030  0.0289  0.0070  0.0037  0.0118 </r>
        <r>  0.0549  0.0123  0.0262  0.0082  0.0119  0.0594  0.0038  0.0001  0.0526 </r>
       </set>
       <set comment="band 18">
        <r>  0.0021  0.1375  0.0470  0.0534  0.0074  0.0088  0.0296  0.0109  0.0151 </r>
        <r>  0.0308  0.0005  0.0099  0.0004  0.0600  0.0827  0.0055  0.0000  0.0247 </r>
       </set>
       <set comment="band 19">
        <r>  0.0005  0.1289  0.0551  0.0294  0.0143  0.0095  0.0008  0.1110  0.0026 </r>
        <r>  0.0017  0.0126  0.1144  0.0985  0.0073  0.0037  0.0003  0.1337  0.0042 </r>
       </set>
       <set comment="band 20">
        <r>  0.0023  0.0499  0.0491  0.1196  0.0193  0.0342  0.0050  0.0548  0.0061 </r>
        <r>  0.0023  0.0268  0.0178  0.0760  0.0001  0.0081  0.0025  0.3042  0.0076 </r>
       </set>
       <set comment="band 21">
        <r>  0.0180  0.0070  0.0884  0.0129  0.0106  0.0002  0.0212  0.0034  0.0830 </r>
        <r>  0.0244  0.0020  0.1063  0.0247  0.0139  0.0108  0.0231  0.0208  0.1062 </r>
       </set>
       <set comment="band 22">
        <r>  0.0113  0.0016  0.0557  0.0855  0.0037  0.0058  0.0178  0.0013  0.0540 </r>
        <r>  0.0326  0.0004  0.0314  0.0658  0.0081  0.0105  0.0565  0.0022  0.1585 </r>
       </set>
       <set comment="band 23">
        <r>  0.0038  0.0023  0.0210  0.0191  0.0013  0.0002  0.0164  0.0221  0.0000 </r>
        <r>  0.0004  0.0020  0.0020  0.0039  0.0089  0.0009  0.1745  0.0533  0.0413 </r>
       </set>
       <set comment="band 24">
        <r>  0.0058  0.0049  0.0056  0.0114  0.0013  0.0046  0.0294  0.1511  0.0200 </r>
        <r>  0.0075  0.0005  0.0100  0.0146  0.0185  0.0531  0.0189  0.0072  0.0258 </r>
       </set>
       <set comment="band 25">
        <r>  0.0272  0.0053  0.0514  0.0277  0.0091  0.0089  0.0135  0.0396  0.0085 </r>
        <r>  0.0191  0.0000  0.0148  0.0019  0.0336  0.0009  0.0227  0.0009  0.0014 </r>
       </set>
       <set comment="band 26">
        <r>  0.0603  0.0003  0.0057  0.0546  0.0028  0.0064  0.0133  0.0034  0.0321 </r>
        <r>  0.0102  0.0044  0.0015  0.0106  0.0092  0.0289  0.0024  0.0041  0.0039 </r>
       </set>
       <set comment="band 27">
        <r>  0.0058  0.0010  0.1396  0.0807  0.0021  0.0127  0.0142  0.0008  0.0022 </r>
        <r>  0.0002  0.1666  0.0014  0.0031  0.0236  0.0013  0.1533  0.0870  0.0775 </r>
       </set>
       <set comment="band 28">
        <r>  0.0183  0.0212  0.0008  0.0011  0.0004  0.0027  0.0296  0.0311  0.1532 </r>
        <r>  0.0000  0.0022  0.0611  0.0035  0.0331  0.3416  0.0045  0.0000  0.0001 </r>
       </set>
       <set comment="band 29">
        <r>  0.0108  0.0255  0.0133  0.0045  0.0114  0.0312  0.1632  0.0415  0.0006 </r>
        <r>  0.0105  0.0094  0.0057  0.0570  0.3072  0.0174  0.0058  0.0046  0.0160 </r>
       </set>
       <set comment="band 30">
        <r>  0.0005  0.0013  0.0125  0.0464  0.2431  0.2278  0.0027  0.0007  0.0035 </r>
        <r>  0.0549  0.0044  0.0000  0.0054  0.0330  0.0012  0.0634  0.0023  0.0669 </r>
       </set>
       <set comment="band 31">
        <r>  0.0000  0.1381  0.0296  0.0206  0.0451  0.0714  0.0479  0.0019  0.0075 </r>
        <r>  0.0001  0.0147  0.0001  0.0000  0.0441  0.0663  0.0078  0.0145  0.0002 </r>
       </set>
       <set comment="band 32">
        <r>  0.0031  0.1066  0.0354  0.0321  0.0992  0.0548  0.0297  0.0009  0.0155 </r>
        <r>  0.0053  0.0212  0.0001  0.0000  0.0482  0.0271  0.0010  0.0252  0.0096 </r>
       </set>
      </set>
     </set>
    </set>
   </array>
  </projected>
 </calculation>
 <structure name="finalpos" >
  <crystal>
   <varray name="basis" >
    <v>       0.00000000       2.81247361       2.81247361 </v>
    <v>       2.81247361       0.00000000       2.81247361 </v>
    <v>       2.81247361       2.81247361       0.00000000 </v>
   </varray>
   <i name="volume">     44.49337659 </i>
   <varray name="rec_basis" >
    <v>      -0.17777945       0.17777945       0.17777945 </v>
    <v>       0.17777945      -0.17777945       0.17777945 </v>
    <v>       0.17777945       0.17777945      -0.17777945 </v>
   </varray>
  </crystal>
  <varray name="positions" >
   <v>       0.00000000       0.00000000       0.00000000 </v>
   <v>       0.25000000       0.25000000       0.25000000 </v>
  </varray>
 </structure>
</modeling>
