<?xml version="1.0" encoding="ISO-8859-1"?>
<modeling>
 <generator>
  <i name="program" type="string">vasp </i>
  <i name="version" type="string">5.4.1  </i>
  <i name="subversion" type="string">24Jun15 (build Jul  8 2016 11:48:28) complex                          parallel </i>
  <i name="platform" type="string">GCC5.3.0_CrayMPICH7.4.0_FFTW3.3.4.8 </i>
  <i name="date" type="string">2016 12 21 </i>
  <i name="time" type="string">20:02:34 </i>
 </generator>
 <incar>
  <i type="int" name="ISTART">     1</i>
  <i type="string" name="PREC">accurate</i>
  <i type="string" name="ALGO"> Normal</i>
  <i type="int" name="ISPIN">     1</i>
  <i type="int" name="ICHARG">    11</i>
  <i type="int" name="NELM">   100</i>
  <i type="int" name="IBRION">    -1</i>
  <i name="EDIFF">      0.00010000</i>
  <i type="int" name="NSW">     0</i>
  <i type="int" name="ISIF">     3</i>
  <i type="int" name="ISYM">     0</i>
  <i name="ENCUT">    520.00000000</i>
  <i type="int" name="NBANDS">    20</i>
  <i type="int" name="NEDOS">   601</i>
  <i type="string" name="LREAL"> Auto</i>
  <i type="int" name="ISMEAR">     0</i>
  <i name="SIGMA">      0.00100000</i>
  <i type="logical" name="LWAVE"> F  </i>
  <i type="logical" name="LCHARG"> F  </i>
  <i type="logical" name="LVHAR"> T  </i>
  <i type="logical" name="LORBIT"> F  </i>
  <i type="logical" name="LAECHG"> T  </i>
  <v type="int" name="KPOINT_BSE">    -1     0     0     0</v>
  <i type="int" name="NELM">   100</i>
 </incar>
 <kpoints>
  <varray name="kpointlist" >
   <v>       0.00000000       0.00000000       0.00000000 </v>
   <v>       0.06666667       0.00000000       0.00000000 </v>
   <v>       0.13333333       0.00000000       0.00000000 </v>
   <v>       0.20000000       0.00000000       0.00000000 </v>
   <v>       0.26666667       0.00000000       0.00000000 </v>
   <v>       0.33333333       0.00000000       0.00000000 </v>
   <v>       0.40000000       0.00000000       0.00000000 </v>
   <v>       0.46666667       0.00000000       0.00000000 </v>
   <v>       0.06666667       0.06666667       0.00000000 </v>
   <v>       0.13333333       0.06666667       0.00000000 </v>
   <v>       0.20000000       0.06666667       0.00000000 </v>
   <v>       0.26666667       0.06666667       0.00000000 </v>
   <v>       0.33333333       0.06666667       0.00000000 </v>
   <v>       0.40000000       0.06666667       0.00000000 </v>
   <v>       0.46666667       0.06666667       0.00000000 </v>
   <v>      -0.46666667       0.06666667       0.00000000 </v>
   <v>      -0.40000000       0.06666667       0.00000000 </v>
   <v>      -0.33333333       0.06666667       0.00000000 </v>
   <v>      -0.26666667       0.06666667       0.00000000 </v>
   <v>      -0.20000000       0.06666667       0.00000000 </v>
   <v>      -0.13333333       0.06666667       0.00000000 </v>
   <v>      -0.06666667       0.06666667       0.00000000 </v>
   <v>       0.13333333       0.13333333       0.00000000 </v>
   <v>       0.20000000       0.13333333       0.00000000 </v>
   <v>       0.26666667       0.13333333       0.00000000 </v>
   <v>       0.33333333       0.13333333       0.00000000 </v>
   <v>       0.40000000       0.13333333       0.00000000 </v>
   <v>       0.46666667       0.13333333       0.00000000 </v>
   <v>      -0.46666667       0.13333333       0.00000000 </v>
   <v>      -0.40000000       0.13333333       0.00000000 </v>
   <v>      -0.33333333       0.13333333       0.00000000 </v>
   <v>      -0.26666667       0.13333333       0.00000000 </v>
   <v>      -0.20000000       0.13333333       0.00000000 </v>
   <v>      -0.13333333       0.13333333       0.00000000 </v>
   <v>       0.20000000       0.20000000       0.00000000 </v>
   <v>       0.26666667       0.20000000       0.00000000 </v>
   <v>       0.33333333       0.20000000       0.00000000 </v>
   <v>       0.40000000       0.20000000       0.00000000 </v>
   <v>       0.46666667       0.20000000       0.00000000 </v>
   <v>      -0.46666667       0.20000000       0.00000000 </v>
   <v>      -0.40000000       0.20000000       0.00000000 </v>
   <v>      -0.33333333       0.20000000       0.00000000 </v>
   <v>      -0.26666667       0.20000000       0.00000000 </v>
   <v>      -0.20000000       0.20000000       0.00000000 </v>
   <v>       0.26666667       0.26666667       0.00000000 </v>
   <v>       0.33333333       0.26666667       0.00000000 </v>
   <v>       0.40000000       0.26666667       0.00000000 </v>
   <v>       0.46666667       0.26666667       0.00000000 </v>
   <v>      -0.46666667       0.26666667       0.00000000 </v>
   <v>      -0.40000000       0.26666667       0.00000000 </v>
   <v>      -0.33333333       0.26666667       0.00000000 </v>
   <v>      -0.26666667       0.26666667       0.00000000 </v>
   <v>       0.33333333       0.33333333       0.00000000 </v>
   <v>       0.40000000       0.33333333       0.00000000 </v>
   <v>       0.46666667       0.33333333       0.00000000 </v>
   <v>      -0.46666667       0.33333333       0.00000000 </v>
   <v>      -0.40000000       0.33333333       0.00000000 </v>
   <v>      -0.33333333       0.33333333       0.00000000 </v>
   <v>       0.40000000       0.40000000       0.00000000 </v>
   <v>       0.46666667       0.40000000       0.00000000 </v>
   <v>      -0.46666667       0.40000000       0.00000000 </v>
   <v>      -0.40000000       0.40000000       0.00000000 </v>
   <v>       0.46666667       0.46666667       0.00000000 </v>
   <v>      -0.46666667       0.46666667       0.00000000 </v>
   <v>       0.20000000       0.13333333       0.06666667 </v>
   <v>       0.26666667       0.13333333       0.06666667 </v>
   <v>       0.33333333       0.13333333       0.06666667 </v>
   <v>       0.40000000       0.13333333       0.06666667 </v>
   <v>       0.46666667       0.13333333       0.06666667 </v>
   <v>      -0.46666667       0.13333333       0.06666667 </v>
   <v>       0.26666667       0.20000000       0.06666667 </v>
   <v>       0.33333333       0.20000000       0.06666667 </v>
   <v>       0.40000000       0.20000000       0.06666667 </v>
   <v>       0.46666667       0.20000000       0.06666667 </v>
   <v>      -0.46666667       0.20000000       0.06666667 </v>
   <v>      -0.40000000       0.20000000       0.06666667 </v>
   <v>      -0.33333333       0.20000000       0.06666667 </v>
   <v>      -0.26666667       0.20000000       0.06666667 </v>
   <v>      -0.20000000       0.20000000       0.06666667 </v>
   <v>      -0.13333333       0.20000000       0.06666667 </v>
   <v>       0.33333333       0.26666667       0.06666667 </v>
   <v>       0.40000000       0.26666667       0.06666667 </v>
   <v>       0.46666667       0.26666667       0.06666667 </v>
   <v>      -0.46666667       0.26666667       0.06666667 </v>
   <v>      -0.40000000       0.26666667       0.06666667 </v>
   <v>      -0.33333333       0.26666667       0.06666667 </v>
   <v>      -0.26666667       0.26666667       0.06666667 </v>
   <v>      -0.20000000       0.26666667       0.06666667 </v>
   <v>       0.40000000       0.33333333       0.06666667 </v>
   <v>       0.46666667       0.33333333       0.06666667 </v>
   <v>      -0.46666667       0.33333333       0.06666667 </v>
   <v>      -0.40000000       0.33333333       0.06666667 </v>
   <v>      -0.33333333       0.33333333       0.06666667 </v>
   <v>      -0.26666667       0.33333333       0.06666667 </v>
   <v>       0.46666667       0.40000000       0.06666667 </v>
   <v>      -0.46666667       0.40000000       0.06666667 </v>
   <v>      -0.40000000       0.40000000       0.06666667 </v>
   <v>      -0.33333333       0.40000000       0.06666667 </v>
   <v>      -0.46666667       0.46666667       0.06666667 </v>
   <v>      -0.40000000       0.46666667       0.06666667 </v>
   <v>       0.40000000       0.26666667       0.13333333 </v>
   <v>       0.46666667       0.26666667       0.13333333 </v>
   <v>      -0.46666667       0.26666667       0.13333333 </v>
   <v>      -0.40000000       0.26666667       0.13333333 </v>
   <v>       0.46666667       0.33333333       0.13333333 </v>
   <v>      -0.46666667       0.33333333       0.13333333 </v>
   <v>      -0.40000000       0.33333333       0.13333333 </v>
   <v>      -0.33333333       0.33333333       0.13333333 </v>
   <v>      -0.26666667       0.33333333       0.13333333 </v>
   <v>      -0.20000000       0.33333333       0.13333333 </v>
   <v>      -0.46666667       0.40000000       0.13333333 </v>
   <v>      -0.40000000       0.40000000       0.13333333 </v>
   <v>      -0.33333333       0.40000000       0.13333333 </v>
   <v>      -0.26666667       0.40000000       0.13333333 </v>
   <v>      -0.40000000       0.46666667       0.13333333 </v>
   <v>      -0.33333333       0.46666667       0.13333333 </v>
   <v>      -0.40000000       0.40000000       0.20000000 </v>
   <v>      -0.33333333       0.40000000       0.20000000 </v>
   <v>      -0.33333333       0.46666667       0.20000000 </v>
   <v>      -0.26666667       0.46666667       0.20000000 </v>
  </varray>
  <varray name="weights" >
   <v>       0.00029630 </v>
   <v>       0.00237037 </v>
   <v>       0.00237037 </v>
   <v>       0.00237037 </v>
   <v>       0.00237037 </v>
   <v>       0.00237037 </v>
   <v>       0.00237037 </v>
   <v>       0.00237037 </v>
   <v>       0.00177778 </v>
   <v>       0.00711111 </v>
   <v>       0.00711111 </v>
   <v>       0.00711111 </v>
   <v>       0.00711111 </v>
   <v>       0.00711111 </v>
   <v>       0.00711111 </v>
   <v>       0.00711111 </v>
   <v>       0.00711111 </v>
   <v>       0.00711111 </v>
   <v>       0.00711111 </v>
   <v>       0.00711111 </v>
   <v>       0.00711111 </v>
   <v>       0.00355556 </v>
   <v>       0.00177778 </v>
   <v>       0.00711111 </v>
   <v>       0.00711111 </v>
   <v>       0.00711111 </v>
   <v>       0.00711111 </v>
   <v>       0.00711111 </v>
   <v>       0.00711111 </v>
   <v>       0.00711111 </v>
   <v>       0.00711111 </v>
   <v>       0.00711111 </v>
   <v>       0.00711111 </v>
   <v>       0.00355556 </v>
   <v>       0.00177778 </v>
   <v>       0.00711111 </v>
   <v>       0.00711111 </v>
   <v>       0.00711111 </v>
   <v>       0.00711111 </v>
   <v>       0.00711111 </v>
   <v>       0.00711111 </v>
   <v>       0.00711111 </v>
   <v>       0.00711111 </v>
   <v>       0.00355556 </v>
   <v>       0.00177778 </v>
   <v>       0.00711111 </v>
   <v>       0.00711111 </v>
   <v>       0.00711111 </v>
   <v>       0.00711111 </v>
   <v>       0.00711111 </v>
   <v>       0.00711111 </v>
   <v>       0.00355556 </v>
   <v>       0.00177778 </v>
   <v>       0.00711111 </v>
   <v>       0.00711111 </v>
   <v>       0.00711111 </v>
   <v>       0.00711111 </v>
   <v>       0.00355556 </v>
   <v>       0.00177778 </v>
   <v>       0.00711111 </v>
   <v>       0.00711111 </v>
   <v>       0.00355556 </v>
   <v>       0.00177778 </v>
   <v>       0.00355556 </v>
   <v>       0.00711111 </v>
   <v>       0.01422222 </v>
   <v>       0.01422222 </v>
   <v>       0.01422222 </v>
   <v>       0.01422222 </v>
   <v>       0.01422222 </v>
   <v>       0.00711111 </v>
   <v>       0.01422222 </v>
   <v>       0.01422222 </v>
   <v>       0.01422222 </v>
   <v>       0.01422222 </v>
   <v>       0.01422222 </v>
   <v>       0.01422222 </v>
   <v>       0.01422222 </v>
   <v>       0.01422222 </v>
   <v>       0.00711111 </v>
   <v>       0.00711111 </v>
   <v>       0.01422222 </v>
   <v>       0.01422222 </v>
   <v>       0.01422222 </v>
   <v>       0.01422222 </v>
   <v>       0.01422222 </v>
   <v>       0.01422222 </v>
   <v>       0.00711111 </v>
   <v>       0.00711111 </v>
   <v>       0.01422222 </v>
   <v>       0.01422222 </v>
   <v>       0.01422222 </v>
   <v>       0.01422222 </v>
   <v>       0.00711111 </v>
   <v>       0.00711111 </v>
   <v>       0.01422222 </v>
   <v>       0.01422222 </v>
   <v>       0.00711111 </v>
   <v>       0.00711111 </v>
   <v>       0.00711111 </v>
   <v>       0.00711111 </v>
   <v>       0.01422222 </v>
   <v>       0.01422222 </v>
   <v>       0.01422222 </v>
   <v>       0.00711111 </v>
   <v>       0.01422222 </v>
   <v>       0.01422222 </v>
   <v>       0.01422222 </v>
   <v>       0.01422222 </v>
   <v>       0.00711111 </v>
   <v>       0.00711111 </v>
   <v>       0.01422222 </v>
   <v>       0.01422222 </v>
   <v>       0.00711111 </v>
   <v>       0.00711111 </v>
   <v>       0.00711111 </v>
   <v>       0.00711111 </v>
   <v>       0.01422222 </v>
   <v>       0.00711111 </v>
   <v>       0.00711111 </v>
  </varray>
 </kpoints>
 <parameters>
  <separator name="general" >
   <i type="string" name="SYSTEM">unknown system</i>
   <i type="logical" name="LCOMPAT"> F  </i>
  </separator>
  <separator name="electronic" >
   <i type="string" name="PREC">accura</i>
   <i name="ENMAX">    520.00000000</i>
   <i name="ENAUG">    391.91400000</i>
   <i name="EDIFF">      0.00010000</i>
   <i type="int" name="IALGO">    38</i>
   <i type="int" name="IWAVPR">    10</i>
   <i type="int" name="NBANDS">    20</i>
   <i name="NELECT">     20.00000000</i>
   <i type="int" name="TURBO">     0</i>
   <i type="int" name="IRESTART">     0</i>
   <i type="int" name="NREBOOT">     0</i>
   <i type="int" name="NMIN">     0</i>
   <i name="EREF">      0.00000000</i>
   <separator name="electronic smearing" >
    <i type="int" name="ISMEAR">     0</i>
    <i name="SIGMA">      0.00100000</i>
    <i name="KSPACING">      0.50000000</i>
    <i type="logical" name="KGAMMA"> T  </i>
   </separator>
   <separator name="electronic projectors" >
    <i type="logical" name="LREAL"> T  </i>
    <v name="ROPT">     -0.00025000     -0.00025000</v>
    <i type="int" name="LMAXPAW">  -100</i>
    <i type="int" name="LMAXMIX">     2</i>
    <i type="logical" name="NLSPLINE"> F  </i>
   </separator>
   <separator name="electronic startup" >
    <i type="int" name="ISTART">     0</i>
    <i type="int" name="ICHARG">    11</i>
    <i type="int" name="INIWAV">     1</i>
   </separator>
   <separator name="electronic spin" >
    <i type="int" name="ISPIN">     1</i>
    <i type="logical" name="LNONCOLLINEAR"> F  </i>
    <v name="MAGMOM">      1.00000000      1.00000000</v>
    <i name="NUPDOWN">     -1.00000000</i>
    <i type="logical" name="LSORBIT"> F  </i>
    <v name="SAXIS">      0.00000000      0.00000000      1.00000000</v>
    <i type="logical" name="LSPIRAL"> F  </i>
    <v name="QSPIRAL">      0.00000000      0.00000000      0.00000000</v>
    <i type="logical" name="LZEROZ"> F  </i>
   </separator>
   <separator name="electronic exchange-correlation" >
    <i type="logical" name="LASPH"> F  </i>
    <i type="logical" name="LMETAGGA"> F  </i>
   </separator>
   <separator name="electronic convergence" >
    <i type="int" name="NELM">   100</i>
    <i type="int" name="NELMDL">     0</i>
    <i type="int" name="NELMIN">     2</i>
    <i name="ENINI">    520.00000000</i>
    <separator name="electronic convergence detail" >
     <i type="logical" name="LDIAG"> T  </i>
     <i type="logical" name="LSUBROT"> F  </i>
     <i name="WEIMIN">      0.00000000</i>
     <i name="EBREAK">      0.00000125</i>
     <i name="DEPER">      0.30000000</i>
     <i type="int" name="NRMM">     4</i>
     <i name="TIME">      0.40000000</i>
    </separator>
   </separator>
   <separator name="electronic mixer" >
    <i name="AMIX">      0.40000000</i>
    <i name="BMIX">      1.00000000</i>
    <i name="AMIN">      0.10000000</i>
    <i name="AMIX_MAG">      1.60000000</i>
    <i name="BMIX_MAG">      1.00000000</i>
    <separator name="electronic mixer details" >
     <i type="int" name="IMIX">     4</i>
     <i type="logical" name="MIXFIRST"> F  </i>
     <i type="int" name="MAXMIX">   -45</i>
     <i name="WC">    100.00000000</i>
     <i type="int" name="INIMIX">     1</i>
     <i type="int" name="MIXPRE">     1</i>
     <i type="int" name="MREMOVE">     5</i>
    </separator>
   </separator>
   <separator name="electronic dipolcorrection" >
    <i type="logical" name="LDIPOL"> F  </i>
    <i type="logical" name="LMONO"> F  </i>
    <i type="int" name="IDIPOL">     0</i>
    <i name="EPSILON">      1.00000000</i>
    <v name="DIPOL">   -100.00000000   -100.00000000   -100.00000000</v>
    <i name="EFIELD">      0.00000000</i>
   </separator>
  </separator>
  <separator name="grids" >
   <i type="int" name="NGX">    36</i>
   <i type="int" name="NGY">    36</i>
   <i type="int" name="NGZ">    36</i>
   <i type="int" name="NGXF">    72</i>
   <i type="int" name="NGYF">    72</i>
   <i type="int" name="NGZF">    72</i>
   <i type="logical" name="ADDGRID"> F  </i>
  </separator>
  <separator name="ionic" >
   <i type="int" name="NSW">     0</i>
   <i type="int" name="IBRION">    -1</i>
   <i type="int" name="ISIF">     3</i>
   <i name="PSTRESS">      0.00000000</i>
   <i name="EDIFFG">      0.00100000</i>
   <i type="int" name="NFREE">     0</i>
   <i name="POTIM">      0.50000000</i>
   <i name="SMASS">     -3.00000000</i>
   <i name="SCALEE">      1.00000000</i>
  </separator>
  <separator name="ionic md" >
   <i name="TEBEG">      0.00010000</i>
   <i name="TEEND">      0.00010000</i>
   <i type="int" name="NBLOCK">     1</i>
   <i type="int" name="KBLOCK">     1</i>
   <i type="int" name="NPACO">   256</i>
   <i name="APACO">     16.00000000</i>
  </separator>
  <separator name="symmetry" >
   <i type="int" name="ISYM">     0</i>
   <i name="SYMPREC">      0.00001000</i>
  </separator>
  <separator name="dos" >
   <i type="logical" name="LORBIT"> F  </i>
   <v name="RWIGS">     -1.00000000     -1.00000000</v>
   <i type="int" name="NEDOS">   601</i>
   <i name="EMIN">     10.00000000</i>
   <i name="EMAX">    -10.00000000</i>
   <i name="EFERMI">      0.00000000</i>
  </separator>
  <separator name="writing" >
   <i type="int" name="NWRITE">     2</i>
   <i type="logical" name="LWAVE"> F  </i>
   <i type="logical" name="LCHARG"> F  </i>
   <i type="logical" name="LPARD"> F  </i>
   <i type="logical" name="LVTOT"> F  </i>
   <i type="logical" name="LVHAR"> T  </i>
   <i type="logical" name="LELF"> F  </i>
   <i type="logical" name="LOPTICS"> F  </i>
   <v name="STM">      0.00000000      0.00000000      0.00000000      0.00000000      0.00000000      0.00000000      0.00000000</v>
  </separator>
  <separator name="performance" >
   <i type="int" name="NPAR">     4</i>
   <i type="int" name="NSIM">     4</i>
   <i type="int" name="NBLK">    -1</i>
   <i type="logical" name="LPLANE"> T  </i>
   <i type="logical" name="LSCALAPACK"> T  </i>
   <i type="logical" name="LSCAAWARE"> F  </i>
   <i type="logical" name="LSCALU"> F  </i>
   <i type="logical" name="LASYNC"> F  </i>
   <i type="logical" name="LORBITALREAL"> F  </i>
  </separator>
  <separator name="miscellaneous" >
   <i type="int" name="IDIOT">     3</i>
   <i type="logical" name="LMUSIC"> F  </i>
   <v name="POMASS">    127.60000000    207.20000000</v>
   <v name="DARWINR">      0.00000000      0.00000000</v>
   <v name="DARWINV">      1.00000000      1.00000000</v>
   <i type="logical" name="LCORR"> T  </i>
  </separator>
  <i type="logical" name="GGA_COMPAT"> T  </i>
  <i type="logical" name="LBERRY"> F  </i>
  <i type="int" name="ICORELEVEL">     0</i>
  <i type="logical" name="LDAU"> F  </i>
  <i type="int" name="I_CONSTRAINED_M">     0</i>
  <separator name="electronic exchange-correlation" >
   <i type="string" name="GGA">--</i>
   <i type="int" name="VOSKOWN">     0</i>
   <i type="logical" name="LHFCALC"> F  </i>
   <i type="string" name="PRECFOCK"></i>
   <i type="logical" name="LSYMGRAD"> F  </i>
   <i type="logical" name="LHFONE"> F  </i>
   <i type="logical" name="LRHFCALC"> F  </i>
   <i type="logical" name="LTHOMAS"> F  </i>
   <i type="logical" name="LMODELHF"> F  </i>
   <i name="ENCUT4O">     -1.00000000</i>
   <i type="int" name="EXXOEP">     0</i>
   <i type="int" name="FOURORBIT">     0</i>
   <i name="AEXX">      0.00000000</i>
   <i name="HFALPHA">      0.00000000</i>
   <i name="MCALPHA">      0.00000000</i>
   <i name="ALDAX">      1.00000000</i>
   <i name="AGGAX">      1.00000000</i>
   <i name="ALDAC">      1.00000000</i>
   <i name="AGGAC">      1.00000000</i>
   <i type="int" name="NKREDX">     1</i>
   <i type="int" name="NKREDY">     1</i>
   <i type="int" name="NKREDZ">     1</i>
   <i type="logical" name="SHIFTRED"> F  </i>
   <i type="logical" name="ODDONLY"> F  </i>
   <i type="logical" name="EVENONLY"> F  </i>
   <i type="int" name="LMAXFOCK">     0</i>
   <i type="int" name="NMAXFOCKAE">     0</i>
   <i type="logical" name="LFOCKAEDFT"> F  </i>
   <i name="HFSCREEN">      0.00000000</i>
   <i name="HFSCREENC">      0.00000000</i>
   <i type="int" name="NBANDSGWLOW">     0</i>
  </separator>
  <separator name="vdW DFT" >
   <i type="logical" name="LUSE_VDW"> F  </i>
   <i name="Zab_VDW">     -0.84910000</i>
   <i name="PARAM1">      0.12340000</i>
   <i name="PARAM2">      1.00000000</i>
   <i name="PARAM3">      0.00000000</i>
  </separator>
  <separator name="model GW" >
   <i type="int" name="MODEL_GW">     0</i>
   <i name="MODEL_EPS0">     21.23305057</i>
   <i name="MODEL_ALPHA">      1.00000000</i>
  </separator>
  <separator name="linear response parameters" >
   <i type="logical" name="LEPSILON"> F  </i>
   <i type="logical" name="LRPA"> F  </i>
   <i type="logical" name="LNABLA"> F  </i>
   <i type="logical" name="LVEL"> F  </i>
   <i type="int" name="KINTER">     0</i>
   <i name="CSHIFT">      0.10000000</i>
   <i name="OMEGAMAX">     -1.00000000</i>
   <i name="DEG_THRESHOLD">      0.00200000</i>
  </separator>
  <separator name="orbital magnetization" >
   <i type="logical" name="NUCIND"> F  </i>
   <v name="MAGPOS">      0.00000000      0.00000000      0.00000000</v>
   <i type="logical" name="LNICSALL"> T  </i>
   <i type="logical" name="ORBITALMAG"> F  </i>
   <i type="logical" name="LMAGBLOCH"> F  </i>
   <i type="logical" name="LCHIMAG"> F  </i>
   <i type="logical" name="LGAUGE"> T  </i>
   <i type="int" name="MAGATOM">     0</i>
   <v name="MAGDIPOL">      0.00000000      0.00000000      0.00000000</v>
   <v name="AVECCONST">      0.00000000      0.00000000      0.00000000</v>
  </separator>
  <separator name="response functions" >
   <i type="logical" name="LADDER"> F  </i>
   <i type="logical" name="LFXC"> F  </i>
   <i type="logical" name="LHARTREE"> T  </i>
   <i type="int" name="IBSE">     0</i>
   <v type="int" name="KPOINT">    -1     0     0     0</v>
   <i type="logical" name="LTCTE"> F  </i>
   <i type="logical" name="LTETE"> F  </i>
   <i type="logical" name="LTRIPLET"> F  </i>
   <i type="logical" name="LFXCEPS"> F  </i>
   <i type="logical" name="LFXHEG"> F  </i>
   <i type="int" name="NATURALO">     0</i>
   <i type="logical" name="L2ORDER"> F  </i>
   <i type="logical" name="LUSEW"> F  </i>
   <i name="ENCUTGW">     -2.00000000</i>
   <i name="ENCUTGWSOFT">     -2.00000000</i>
   <i name="ENCUTLF">     -1.00000000</i>
   <i type="int" name="LMAXMP2">    -1</i>
   <i name="SCISSOR">      0.00000000</i>
   <i type="int" name="NOMEGA">     0</i>
   <i type="int" name="NOMEGAR">     0</i>
   <i type="int" name="NBANDSGW">    -1</i>
   <i type="int" name="NBANDSO">    -1</i>
   <i type="int" name="NBANDSV">    -1</i>
   <i type="int" name="NELM">   100</i>
   <i type="int" name="NELMHF">     1</i>
   <i type="int" name="DIM">     3</i>
   <i type="int" name="ANTIRES">     0</i>
   <i name="OMEGAMAX">    -30.00000000</i>
   <i name="OMEGAMIN">    -30.00000000</i>
   <i name="OMEGATL">   -200.00000000</i>
   <i type="int" name="OMEGAGRID">     0</i>
   <i name="CSHIFT">     -0.10000000</i>
   <i type="logical" name="SELFENERGY"> F  </i>
   <i type="logical" name="LSPECTRAL"> F  </i>
   <i type="logical" name="LSPECTRALGW"> F  </i>
   <i type="logical" name="LSINGLES"> F  </i>
   <i type="logical" name="LFERMIGW"> F  </i>
   <i type="logical" name="ODDONLYGW"> F  </i>
   <i type="logical" name="EVENONLYGW"> F  </i>
   <i type="int" name="NKREDLFX">     1</i>
   <i type="int" name="NKREDLFY">     1</i>
   <i type="int" name="NKREDLFZ">     1</i>
   <i type="int" name="MAXMEM">  1800</i>
   <i type="int" name="TELESCOPE">     0</i>
   <i type="int" name="TAUPAR">     1</i>
   <i type="int" name="OMEGAPAR">    -1</i>
   <i name="LAMBDA">      1.00000000</i>
  </separator>
  <separator name="External order field" >
   <i name="OFIELD_KAPPA">      0.00000000</i>
   <v name="OFIELD_K">      0.00000000      0.00000000      0.00000000</v>
   <i name="OFIELD_Q6_NEAR">      0.00000000</i>
   <i name="OFIELD_Q6_FAR">      0.00000000</i>
   <i name="OFIELD_A">      0.00000000</i>
  </separator>
 </parameters>
 <atominfo>
  <atoms>       2 </atoms>
  <types>       2 </types>
  <array name="atoms" >
   <dimension dim="1">ion</dimension>
   <field type="string">element</field>
   <field type="int">atomtype</field>
   <set>
    <rc><c>Te</c><c>   1</c></rc>
    <rc><c>Pb</c><c>   2</c></rc>
   </set>
  </array>
  <array name="atomtypes" >
   <dimension dim="1">type</dimension>
   <field type="int">atomspertype</field>
   <field type="string">element</field>
   <field>mass</field>
   <field>valence</field>
   <field type="string">pseudopotential</field>
   <set>
    <rc><c>   1</c><c>Te</c><c>    127.60000000</c><c>      6.00000000</c><c> PAW_GGA Te 07Sep2001                   </c></rc>
    <rc><c>   1</c><c>Pb</c><c>    207.20000000</c><c>     14.00000000</c><c> PAW_GGA Pb_d 04May1998                 </c></rc>
   </set>
  </array>
 </atominfo>
 <structure name="initialpos" >
  <crystal>
   <varray name="basis" >
    <v>       4.02098700       0.00000000       2.32151800 </v>
    <v>       1.34032900       3.79102300       2.32151800 </v>
    <v>       0.00000000       0.00000000       4.64303600 </v>
   </varray>
   <i name="volume">     70.77683522 </i>
   <varray name="rec_basis" >
    <v>       0.24869516      -0.08792701       0.00000000 </v>
    <v>       0.00000000       0.26378104       0.00000000 </v>
    <v>      -0.12434758      -0.08792701       0.21537632 </v>
   </varray>
  </crystal>
  <varray name="positions" >
   <v>       0.00000000       0.00000000       0.00000000 </v>
   <v>       0.50000000       0.50000000       0.50000000 </v>
  </varray>
 </structure>
 <calculation>
  <scstep>
   <time name="dav">    1.91    1.92</time>
   <time name="total">    1.94    1.96</time>
   <energy>
    <i name="alphaZ">     33.93374717 </i>
    <i name="ewald">  -1367.07702873 </i>
    <i name="hartreedc">   -511.73130133 </i>
    <i name="XCdc">      8.88504895 </i>
    <i name="pawpsdc">   1334.61593709 </i>
    <i name="pawaedc">  -1278.72649931 </i>
    <i name="eentropy">     -0.00000126 </i>
    <i name="bandstr">     50.61152332 </i>
    <i name="atom">   1886.33150510 </i>
    <i name="e_fr_energy">    156.84293100 </i>
    <i name="e_wo_entrp">    156.84293226 </i>
    <i name="e_0_energy">    156.84293163 </i>
   </energy>
  </scstep>
  <scstep>
   <time name="dav">    1.88    1.89</time>
   <time name="total">    1.89    1.90</time>
   <energy>
    <i name="e_fr_energy">      4.37148710 </i>
    <i name="e_wo_entrp">      4.37149076 </i>
    <i name="e_0_energy">      4.37148893 </i>
   </energy>
  </scstep>
  <scstep>
   <time name="dav">    2.12    2.13</time>
   <time name="total">    2.12    2.14</time>
   <energy>
    <i name="e_fr_energy">     -7.17809340 </i>
    <i name="e_wo_entrp">     -7.17809340 </i>
    <i name="e_0_energy">     -7.17809340 </i>
   </energy>
  </scstep>
  <scstep>
   <time name="dav">    2.08    2.08</time>
   <time name="total">    2.08    2.09</time>
   <energy>
    <i name="e_fr_energy">     -7.52145985 </i>
    <i name="e_wo_entrp">     -7.52145985 </i>
    <i name="e_0_energy">     -7.52145985 </i>
   </energy>
  </scstep>
  <scstep>
   <time name="dav">    2.35    2.36</time>
   <time name="total">    2.36    2.40</time>
   <energy>
    <i name="e_fr_energy">     -7.53664417 </i>
    <i name="e_wo_entrp">     -7.53664417 </i>
    <i name="e_0_energy">     -7.53664417 </i>
   </energy>
  </scstep>
  <scstep>
   <time name="dav">    2.24    2.25</time>
   <time name="total">    2.24    2.25</time>
   <energy>
    <i name="e_fr_energy">     -7.53708922 </i>
    <i name="e_wo_entrp">     -7.53708922 </i>
    <i name="e_0_energy">     -7.53708922 </i>
   </energy>
  </scstep>
  <scstep>
   <time name="dav">    1.70    1.71</time>
   <time name="total">    1.70    1.71</time>
   <energy>
    <i name="alphaZ">     33.93374717 </i>
    <i name="ewald">  -1367.07702873 </i>
    <i name="hartreedc">   -511.73130133 </i>
    <i name="XCdc">      8.88504895 </i>
    <i name="pawpsdc">   1334.61593709 </i>
    <i name="pawaedc">  -1278.72649931 </i>
    <i name="eentropy">     -0.00000000 </i>
    <i name="bandstr">   -113.76850261 </i>
    <i name="atom">   1886.33150510 </i>
    <i name="e_fr_energy">     -7.53709366 </i>
    <i name="e_wo_entrp">     -7.53709366 </i>
    <i name="e_0_energy">     -7.53709366 </i>
   </energy>
  </scstep>
  <structure>
   <crystal>
    <varray name="basis" >
     <v>       4.02098700       0.00000000       2.32151800 </v>
     <v>       1.34032900       3.79102300       2.32151800 </v>
     <v>       0.00000000       0.00000000       4.64303600 </v>
    </varray>
    <i name="volume">     70.77683522 </i>
    <varray name="rec_basis" >
     <v>       0.24869516      -0.08792701       0.00000000 </v>
     <v>       0.00000000       0.26378104       0.00000000 </v>
     <v>      -0.12434758      -0.08792701       0.21537632 </v>
    </varray>
   </crystal>
   <varray name="positions" >
    <v>       0.00000000       0.00000000       0.00000000 </v>
    <v>       0.50000000       0.50000000       0.50000000 </v>
   </varray>
  </structure>
  <varray name="forces" >
   <v>       0.00003118       0.00004592      -0.00004551 </v>
   <v>      -0.00003118      -0.00004592       0.00004551 </v>
  </varray>
  <varray name="stress" >
   <v>    -129.42987627     -23.68542105      17.14277178 </v>
   <v>     -23.68542056      -0.64259466     -44.48398254 </v>
   <v>      17.14277173     -44.48398314     130.71773084 </v>
  </varray>
  <energy>
   <i name="e_fr_energy">     -7.53709366 </i>
   <i name="e_wo_entrp">     -7.53709366 </i>
   <i name="e_0_energy">     -0.00000000 </i>
  </energy>
  <time name="totalsc">   16.27   16.45</time>
  <eigenvalues>
   <array>
    <dimension dim="1">band</dimension>
    <dimension dim="2">kpoint</dimension>
    <dimension dim="3">spin</dimension>
    <field>eigene</field>
    <field>occ</field>
    <set>
     <set comment="spin 1">
      <set comment="kpoint 1">
       <r>  -11.7123    1.0000 </r>
       <r>  -11.7123    1.0000 </r>
       <r>  -11.7024    1.0000 </r>
       <r>  -11.7024    1.0000 </r>
       <r>  -11.7024    1.0000 </r>
       <r>   -6.6277    1.0000 </r>
       <r>   -0.6962    1.0000 </r>
       <r>    3.8199    1.0000 </r>
       <r>    3.8199    1.0000 </r>
       <r>    3.8199    1.0000 </r>
       <r>    8.9939    0.0000 </r>
       <r>    8.9939    0.0000 </r>
       <r>    8.9939    0.0000 </r>
       <r>   10.9033    0.0000 </r>
       <r>   10.9033    0.0000 </r>
       <r>   10.9033    0.0000 </r>
       <r>   12.4381    0.0000 </r>
       <r>   12.5272    0.0000 </r>
       <r>   12.9759    0.0000 </r>
       <r>   12.9759    0.0000 </r>
      </set>
      <set comment="kpoint 2">
       <r>  -11.7126    1.0000 </r>
       <r>  -11.7126    1.0000 </r>
       <r>  -11.7023    1.0000 </r>
       <r>  -11.7020    1.0000 </r>
       <r>  -11.7020    1.0000 </r>
       <r>   -6.5919    1.0000 </r>
       <r>   -0.8083    1.0000 </r>
       <r>    3.8305    1.0000 </r>
       <r>    3.8305    1.0000 </r>
       <r>    3.8814    1.0000 </r>
       <r>    8.7428    0.0000 </r>
       <r>    8.8145    0.0000 </r>
       <r>    8.8145    0.0000 </r>
       <r>   10.8277    0.0000 </r>
       <r>   10.9863    0.0000 </r>
       <r>   10.9863    0.0000 </r>
       <r>   12.7383    0.0000 </r>
       <r>   12.8738    0.0000 </r>
       <r>   13.2214    0.0000 </r>
       <r>   13.2214    0.0000 </r>
      </set>
      <set comment="kpoint 3">
       <r>  -11.7138    1.0000 </r>
       <r>  -11.7138    1.0000 </r>
       <r>  -11.7020    1.0000 </r>
       <r>  -11.7005    1.0000 </r>
       <r>  -11.7005    1.0000 </r>
       <r>   -6.4857    1.0000 </r>
       <r>   -1.1158    1.0000 </r>
       <r>    3.8630    1.0000 </r>
       <r>    3.8630    1.0000 </r>
       <r>    4.0405    1.0000 </r>
       <r>    8.1898    0.0000 </r>
       <r>    8.3842    0.0000 </r>
       <r>    8.3842    0.0000 </r>
       <r>   10.7509    0.0000 </r>
       <r>   11.2210    0.0000 </r>
       <r>   11.2210    0.0000 </r>
       <r>   13.4540    0.0000 </r>
       <r>   13.7353    0.0000 </r>
       <r>   13.8619    0.0000 </r>
       <r>   13.8619    0.0000 </r>
      </set>
      <set comment="kpoint 4">
       <r>  -11.7158    1.0000 </r>
       <r>  -11.7158    1.0000 </r>
       <r>  -11.7016    1.0000 </r>
       <r>  -11.6981    1.0000 </r>
       <r>  -11.6981    1.0000 </r>
       <r>   -6.3131    1.0000 </r>
       <r>   -1.5549    1.0000 </r>
       <r>    3.9183    1.0000 </r>
       <r>    3.9183    1.0000 </r>
       <r>    4.2448    1.0000 </r>
       <r>    7.5747    0.0000 </r>
       <r>    7.8659    0.0000 </r>
       <r>    7.8659    0.0000 </r>
       <r>   10.8362    0.0000 </r>
       <r>   11.5922    0.0000 </r>
       <r>   11.5922    0.0000 </r>
       <r>   14.3696    0.0000 </r>
       <r>   14.7423    0.0000 </r>
       <r>   14.7423    0.0000 </r>
       <r>   14.8710    0.0000 </r>
      </set>
      <set comment="kpoint 5">
       <r>  -11.7181    1.0000 </r>
       <r>  -11.7181    1.0000 </r>
       <r>  -11.7011    1.0000 </r>
       <r>  -11.6951    1.0000 </r>
       <r>  -11.6951    1.0000 </r>
       <r>   -6.0825    1.0000 </r>
       <r>   -2.0589    1.0000 </r>
       <r>    3.9956    1.0000 </r>
       <r>    3.9956    1.0000 </r>
       <r>    4.4542    1.0000 </r>
       <r>    6.9981    0.0000 </r>
       <r>    7.3571    0.0000 </r>
       <r>    7.3571    0.0000 </r>
       <r>   11.1359    0.0000 </r>
       <r>   12.0910    0.0000 </r>
       <r>   12.0910    0.0000 </r>
       <r>   15.3089    0.0000 </r>
       <r>   15.7577    0.0000 </r>
       <r>   15.7577    0.0000 </r>
       <r>   16.1240    0.0000 </r>
      </set>
      <set comment="kpoint 6">
       <r>  -11.7205    1.0000 </r>
       <r>  -11.7205    1.0000 </r>
       <r>  -11.7006    1.0000 </r>
       <r>  -11.6923    1.0000 </r>
       <r>  -11.6923    1.0000 </r>
       <r>   -5.8113    1.0000 </r>
       <r>   -2.5672    1.0000 </r>
       <r>    4.0886    1.0000 </r>
       <r>    4.0886    1.0000 </r>
       <r>    4.6530    1.0000 </r>
       <r>    6.4984    0.0000 </r>
       <r>    6.9130    0.0000 </r>
       <r>    6.9130    0.0000 </r>
       <r>   11.6473    0.0000 </r>
       <r>   12.7053    0.0000 </r>
       <r>   12.7053    0.0000 </r>
       <r>   15.7510    0.0000 </r>
       <r>   16.7749    0.0000 </r>
       <r>   16.7750    0.0000 </r>
       <r>   17.3887    0.0000 </r>
      </set>
      <set comment="kpoint 7">
       <r>  -11.7224    1.0000 </r>
       <r>  -11.7224    1.0000 </r>
       <r>  -11.7003    1.0000 </r>
       <r>  -11.6900    1.0000 </r>
       <r>  -11.6900    1.0000 </r>
       <r>   -5.5377    1.0000 </r>
       <r>   -3.0131    1.0000 </r>
       <r>    4.1803    1.0000 </r>
       <r>    4.1803    1.0000 </r>
       <r>    4.8369    1.0000 </r>
       <r>    6.0993    0.0000 </r>
       <r>    6.5761    0.0000 </r>
       <r>    6.5761    0.0000 </r>
       <r>   12.3369    0.0000 </r>
       <r>   13.4099    0.0000 </r>
       <r>   13.4099    0.0000 </r>
       <r>   15.2157    0.0000 </r>
       <r>   16.4801    0.0000 </r>
       <r>   16.4801    0.0000 </r>
       <r>   18.1590    0.0000 </r>
      </set>
      <set comment="kpoint 8">
       <r>  -11.7234    1.0000 </r>
       <r>  -11.7234    1.0000 </r>
       <r>  -11.7001    1.0000 </r>
       <r>  -11.6887    1.0000 </r>
       <r>  -11.6887    1.0000 </r>
       <r>   -5.3438    1.0000 </r>
       <r>   -3.2970    1.0000 </r>
       <r>    4.2408    1.0000 </r>
       <r>    4.2408    1.0000 </r>
       <r>    4.9756    1.0000 </r>
       <r>    5.8482    0.0000 </r>
       <r>    6.3900    0.0000 </r>
       <r>    6.3900    0.0000 </r>
       <r>   13.1099    0.0000 </r>
       <r>   14.0978    0.0000 </r>
       <r>   14.0978    0.0000 </r>
       <r>   14.3597    0.0000 </r>
       <r>   15.6374    0.0000 </r>
       <r>   15.6374    0.0000 </r>
       <r>   19.1359    0.0000 </r>
      </set>
      <set comment="kpoint 9">
       <r>  -11.7136    1.0000 </r>
       <r>  -11.7119    1.0000 </r>
       <r>  -11.7028    1.0000 </r>
       <r>  -11.7016    1.0000 </r>
       <r>  -11.7016    1.0000 </r>
       <r>   -6.5800    1.0000 </r>
       <r>   -0.8388    1.0000 </r>
       <r>    3.7463    1.0000 </r>
       <r>    3.7463    1.0000 </r>
       <r>    4.0683    1.0000 </r>
       <r>    8.2919    0.0000 </r>
       <r>    8.9962    0.0000 </r>
       <r>    8.9962    0.0000 </r>
       <r>   10.5994    0.0000 </r>
       <r>   11.1351    0.0000 </r>
       <r>   11.1351    0.0000 </r>
       <r>   12.6265    0.0000 </r>
       <r>   12.9469    0.0000 </r>
       <r>   13.0213    0.0000 </r>
       <r>   13.6864    0.0000 </r>
      </set>
      <set comment="kpoint 10">
       <r>  -11.7153    1.0000 </r>
       <r>  -11.7120    1.0000 </r>
       <r>  -11.7028    1.0000 </r>
       <r>  -11.7004    1.0000 </r>
       <r>  -11.7002    1.0000 </r>
       <r>   -6.4974    1.0000 </r>
       <r>   -1.0646    1.0000 </r>
       <r>    3.6904    1.0000 </r>
       <r>    3.7140    1.0000 </r>
       <r>    4.3057    1.0000 </r>
       <r>    7.6911    0.0000 </r>
       <r>    8.7941    0.0000 </r>
       <r>    8.8390    0.0000 </r>
       <r>   10.4441    0.0000 </r>
       <r>   11.3447    0.0000 </r>
       <r>   11.4192    0.0000 </r>
       <r>   12.9853    0.0000 </r>
       <r>   13.3141    0.0000 </r>
       <r>   13.5549    0.0000 </r>
       <r>   14.4905    0.0000 </r>
      </set>
      <set comment="kpoint 11">
       <r>  -11.7175    1.0000 </r>
       <r>  -11.7132    1.0000 </r>
       <r>  -11.7024    1.0000 </r>
       <r>  -11.6987    1.0000 </r>
       <r>  -11.6978    1.0000 </r>
       <r>   -6.3471    1.0000 </r>
       <r>   -1.4406    1.0000 </r>
       <r>    3.6707    1.0000 </r>
       <r>    3.7462    1.0000 </r>
       <r>    4.5235    1.0000 </r>
       <r>    7.1168    0.0000 </r>
       <r>    8.3356    0.0000 </r>
       <r>    8.4504    0.0000 </r>
       <r>   10.4732    0.0000 </r>
       <r>   11.6110    0.0000 </r>
       <r>   11.8145    0.0000 </r>
       <r>   13.7337    0.0000 </r>
       <r>   14.0021    0.0000 </r>
       <r>   14.5308    0.0000 </r>
       <r>   15.4473    0.0000 </r>
      </set>
      <set comment="kpoint 12">
       <r>  -11.7200    1.0000 </r>
       <r>  -11.7153    1.0000 </r>
       <r>  -11.7017    1.0000 </r>
       <r>  -11.6964    1.0000 </r>
       <r>  -11.6949    1.0000 </r>
       <r>   -6.1359    1.0000 </r>
       <r>   -1.9062    1.0000 </r>
       <r>    3.6934    1.0000 </r>
       <r>    3.8194    1.0000 </r>
       <r>    4.6709    1.0000 </r>
       <r>    6.6534    0.0000 </r>
       <r>    7.8215    0.0000 </r>
       <r>    7.9744    0.0000 </r>
       <r>   10.6913    0.0000 </r>
       <r>   12.0128    0.0000 </r>
       <r>   12.3224    0.0000 </r>
       <r>   14.6513    0.0000 </r>
       <r>   14.9184    0.0000 </r>
       <r>   15.7301    0.0000 </r>
       <r>   16.4314    0.0000 </r>
      </set>
      <set comment="kpoint 13">
       <r>  -11.7223    1.0000 </r>
       <r>  -11.7178    1.0000 </r>
       <r>  -11.7009    1.0000 </r>
       <r>  -11.6939    1.0000 </r>
       <r>  -11.6920    1.0000 </r>
       <r>   -5.8777    1.0000 </r>
       <r>   -2.4012    1.0000 </r>
       <r>    3.7612    1.0000 </r>
       <r>    3.9115    1.0000 </r>
       <r>    4.7005    1.0000 </r>
       <r>    6.3694    0.0000 </r>
       <r>    7.3453    0.0000 </r>
       <r>    7.4987    0.0000 </r>
       <r>   11.1095    0.0000 </r>
       <r>   12.5564    0.0000 </r>
       <r>   12.9363    0.0000 </r>
       <r>   15.4262    0.0000 </r>
       <r>   15.9177    0.0000 </r>
       <r>   16.9746    0.0000 </r>
       <r>   17.1566    0.0000 </r>
      </set>
      <set comment="kpoint 14">
       <r>  -11.7240    1.0000 </r>
       <r>  -11.7201    1.0000 </r>
       <r>  -11.7003    1.0000 </r>
       <r>  -11.6915    1.0000 </r>
       <r>  -11.6897    1.0000 </r>
       <r>   -5.6019    1.0000 </r>
       <r>   -2.8630    1.0000 </r>
       <r>    3.8714    1.0000 </r>
       <r>    3.9858    1.0000 </r>
       <r>    4.6340    1.0000 </r>
       <r>    6.2690    0.0000 </r>
       <r>    6.9684    0.0000 </r>
       <r>    7.0712    0.0000 </r>
       <r>   11.7128    0.0000 </r>
       <r>   13.2251    0.0000 </r>
       <r>   13.6288    0.0000 </r>
       <r>   15.2472    0.0000 </r>
       <r>   16.2468    0.0000 </r>
       <r>   17.2994    0.0000 </r>
       <r>   17.4441    0.0000 </r>
      </set>
      <set comment="kpoint 15">
       <r>  -11.7249    1.0000 </r>
       <r>  -11.7220    1.0000 </r>
       <r>  -11.6999    1.0000 </r>
       <r>  -11.6898    1.0000 </r>
       <r>  -11.6885    1.0000 </r>
       <r>   -5.3725    1.0000 </r>
       <r>   -3.2060    1.0000 </r>
       <r>    3.9641    1.0000 </r>
       <r>    4.0119    1.0000 </r>
       <r>    4.6139    1.0000 </r>
       <r>    6.2106    0.0000 </r>
       <r>    6.7258    0.0000 </r>
       <r>    6.8037    0.0000 </r>
       <r>   12.4533    0.0000 </r>
       <r>   13.9747    0.0000 </r>
       <r>   14.2466    0.0000 </r>
       <r>   14.4012    0.0000 </r>
       <r>   15.5638    0.0000 </r>
       <r>   16.6012    0.0000 </r>
       <r>   18.4547    0.0000 </r>
      </set>
      <set comment="kpoint 16">
       <r>  -11.7246    1.0000 </r>
       <r>  -11.7229    1.0000 </r>
       <r>  -11.6997    1.0000 </r>
       <r>  -11.6890    1.0000 </r>
       <r>  -11.6885    1.0000 </r>
       <r>   -5.3001    1.0000 </r>
       <r>   -3.3084    1.0000 </r>
       <r>    3.8314    1.0000 </r>
       <r>    4.1564    1.0000 </r>
       <r>    4.7130    1.0000 </r>
       <r>    6.0817    0.0000 </r>
       <r>    6.4976    0.0000 </r>
       <r>    6.9282    0.0000 </r>
       <r>   13.0005    0.0000 </r>
       <r>   13.7811    0.0000 </r>
       <r>   14.0233    0.0000 </r>
       <r>   14.6423    0.0000 </r>
       <r>   15.7878    0.0000 </r>
       <r>   15.8677    0.0000 </r>
       <r>   18.9360    0.0000 </r>
      </set>
      <set comment="kpoint 17">
       <r>  -11.7232    1.0000 </r>
       <r>  -11.7229    1.0000 </r>
       <r>  -11.6999    1.0000 </r>
       <r>  -11.6898    1.0000 </r>
       <r>  -11.6894    1.0000 </r>
       <r>   -5.4373    1.0000 </r>
       <r>   -3.1149    1.0000 </r>
       <r>    3.6785    1.0000 </r>
       <r>    4.2632    1.0000 </r>
       <r>    4.8270    1.0000 </r>
       <r>    6.0255    0.0000 </r>
       <r>    6.4297    0.0000 </r>
       <r>    7.2185    0.0000 </r>
       <r>   12.3915    0.0000 </r>
       <r>   13.2904    0.0000 </r>
       <r>   14.2660    0.0000 </r>
       <r>   14.6036    0.0000 </r>
       <r>   16.0676    0.0000 </r>
       <r>   16.6945    0.0000 </r>
       <r>   17.9527    0.0000 </r>
      </set>
      <set comment="kpoint 18">
       <r>  -11.7218    1.0000 </r>
       <r>  -11.7210    1.0000 </r>
       <r>  -11.7003    1.0000 </r>
       <r>  -11.6921    1.0000 </r>
       <r>  -11.6908    1.0000 </r>
       <r>   -5.6926    1.0000 </r>
       <r>   -2.7225    1.0000 </r>
       <r>    3.5603    1.0000 </r>
       <r>    4.2947    1.0000 </r>
       <r>    4.8365    1.0000 </r>
       <r>    6.1737    0.0000 </r>
       <r>    6.5547    0.0000 </r>
       <r>    7.5950    0.0000 </r>
       <r>   11.6898    0.0000 </r>
       <r>   12.5851    0.0000 </r>
       <r>   13.6141    0.0000 </r>
       <r>   15.3240    0.0000 </r>
       <r>   16.1688    0.0000 </r>
       <r>   17.6036    0.0000 </r>
       <r>   17.6709    0.0000 </r>
      </set>
      <set comment="kpoint 19">
       <r>  -11.7201    1.0000 </r>
       <r>  -11.7184    1.0000 </r>
       <r>  -11.7008    1.0000 </r>
       <r>  -11.6949    1.0000 </r>
       <r>  -11.6931    1.0000 </r>
       <r>   -5.9675    1.0000 </r>
       <r>   -2.2443    1.0000 </r>
       <r>    3.4964    1.0000 </r>
       <r>    4.2502    1.0000 </r>
       <r>    4.7207    1.0000 </r>
       <r>    6.5330    0.0000 </r>
       <r>    6.8626    0.0000 </r>
       <r>    8.0207    0.0000 </r>
       <r>   11.1500    0.0000 </r>
       <r>   11.9849    0.0000 </r>
       <r>   12.9126    0.0000 </r>
       <r>   14.9060    0.0000 </r>
       <r>   16.1008    0.0000 </r>
       <r>   16.6021    0.0000 </r>
       <r>   16.7046    0.0000 </r>
      </set>
      <set comment="kpoint 20">
       <r>  -11.7179    1.0000 </r>
       <r>  -11.7158    1.0000 </r>
       <r>  -11.7015    1.0000 </r>
       <r>  -11.6977    1.0000 </r>
       <r>  -11.6958    1.0000 </r>
       <r>   -6.2123    1.0000 </r>
       <r>   -1.7547    1.0000 </r>
       <r>    3.4931    1.0000 </r>
       <r>    4.1584    1.0000 </r>
       <r>    4.5268    1.0000 </r>
       <r>    7.0365    0.0000 </r>
       <r>    7.3076    0.0000 </r>
       <r>    8.4542    0.0000 </r>
       <r>   10.8149    0.0000 </r>
       <r>   11.5130    0.0000 </r>
       <r>   12.2917    0.0000 </r>
       <r>   13.9871    0.0000 </r>
       <r>   15.2488    0.0000 </r>
       <r>   15.5177    0.0000 </r>
       <r>   15.6340    0.0000 </r>
      </set>
      <set comment="kpoint 21">
       <r>  -11.7157    1.0000 </r>
       <r>  -11.7137    1.0000 </r>
       <r>  -11.7020    1.0000 </r>
       <r>  -11.7000    1.0000 </r>
       <r>  -11.6985    1.0000 </r>
       <r>   -6.4043    1.0000 </r>
       <r>   -1.3131    1.0000 </r>
       <r>    3.5518    1.0000 </r>
       <r>    4.0471    1.0000 </r>
       <r>    4.2935    1.0000 </r>
       <r>    7.6268    0.0000 </r>
       <r>    7.8340    0.0000 </r>
       <r>    8.8225    0.0000 </r>
       <r>   10.6827    0.0000 </r>
       <r>   11.1825    0.0000 </r>
       <r>   11.7644    0.0000 </r>
       <r>   13.2292    0.0000 </r>
       <r>   14.1826    0.0000 </r>
       <r>   14.5065    0.0000 </r>
       <r>   14.6510    0.0000 </r>
      </set>
      <set comment="kpoint 22">
       <r>  -11.7139    1.0000 </r>
       <r>  -11.7126    1.0000 </r>
       <r>  -11.7023    1.0000 </r>
       <r>  -11.7015    1.0000 </r>
       <r>  -11.7007    1.0000 </r>
       <r>   -6.5326    1.0000 </r>
       <r>   -0.9786    1.0000 </r>
       <r>    3.6706    1.0000 </r>
       <r>    3.9339    1.0000 </r>
       <r>    4.0591    1.0000 </r>
       <r>    8.2411    0.0000 </r>
       <r>    8.3732    0.0000 </r>
       <r>    8.9883    0.0000 </r>
       <r>   10.7050    0.0000 </r>
       <r>   11.0033    0.0000 </r>
       <r>   11.3280    0.0000 </r>
       <r>   12.8378    0.0000 </r>
       <r>   13.3332    0.0000 </r>
       <r>   13.6286    0.0000 </r>
       <r>   13.8149    0.0000 </r>
      </set>
      <set comment="kpoint 23">
       <r>  -11.7178    1.0000 </r>
       <r>  -11.7108    1.0000 </r>
       <r>  -11.7037    1.0000 </r>
       <r>  -11.6991    1.0000 </r>
       <r>  -11.6991    1.0000 </r>
       <r>   -6.4390    1.0000 </r>
       <r>   -1.1742    1.0000 </r>
       <r>    3.5483    1.0000 </r>
       <r>    3.5483    1.0000 </r>
       <r>    4.6050    1.0000 </r>
       <r>    7.1242    0.0000 </r>
       <r>    9.0512    0.0000 </r>
       <r>    9.0512    0.0000 </r>
       <r>   10.0665    0.0000 </r>
       <r>   11.7546    0.0000 </r>
       <r>   11.7546    0.0000 </r>
       <r>   12.8156    0.0000 </r>
       <r>   13.1573    0.0000 </r>
       <r>   13.8268    0.0000 </r>
       <r>   15.3648    0.0000 </r>
      </set>
      <set comment="kpoint 24">
       <r>  -11.7208    1.0000 </r>
       <r>  -11.7107    1.0000 </r>
       <r>  -11.7040    1.0000 </r>
       <r>  -11.6974    1.0000 </r>
       <r>  -11.6971    1.0000 </r>
       <r>   -6.3130    1.0000 </r>
       <r>   -1.4341    1.0000 </r>
       <r>    3.4506    1.0000 </r>
       <r>    3.4708    1.0000 </r>
       <r>    4.7234    1.0000 </r>
       <r>    6.7592    0.0000 </r>
       <r>    8.8921    0.0000 </r>
       <r>    8.9466    0.0000 </r>
       <r>    9.9431    0.0000 </r>
       <r>   12.0891    0.0000 </r>
       <r>   12.1731    0.0000 </r>
       <r>   13.2126    0.0000 </r>
       <r>   13.5000    0.0000 </r>
       <r>   14.5315    0.0000 </r>
       <r>   16.3385    0.0000 </r>
      </set>
      <set comment="kpoint 25">
       <r>  -11.7238    1.0000 </r>
       <r>  -11.7120    1.0000 </r>
       <r>  -11.7036    1.0000 </r>
       <r>  -11.6955    1.0000 </r>
       <r>  -11.6942    1.0000 </r>
       <r>   -6.1252    1.0000 </r>
       <r>   -1.8077    1.0000 </r>
       <r>    3.4072    1.0000 </r>
       <r>    3.4701    1.0000 </r>
       <r>    4.5742    1.0000 </r>
       <r>    6.6923    0.0000 </r>
       <r>    8.4925    0.0000 </r>
       <r>    8.6131    0.0000 </r>
       <r>   10.0458    0.0000 </r>
       <r>   12.4447    0.0000 </r>
       <r>   12.6713    0.0000 </r>
       <r>   13.9881    0.0000 </r>
       <r>   14.2336    0.0000 </r>
       <r>   15.5674    0.0000 </r>
       <r>   17.2756    0.0000 </r>
      </set>
      <set comment="kpoint 26">
       <r>  -11.7264    1.0000 </r>
       <r>  -11.7141    1.0000 </r>
       <r>  -11.7025    1.0000 </r>
       <r>  -11.6938    1.0000 </r>
       <r>  -11.6913    1.0000 </r>
       <r>   -5.8871    1.0000 </r>
       <r>   -2.2438    1.0000 </r>
       <r>    3.4244    1.0000 </r>
       <r>    3.5151    1.0000 </r>
       <r>    4.2682    1.0000 </r>
       <r>    6.8241    0.0000 </r>
       <r>    8.0562    0.0000 </r>
       <r>    8.1825    0.0000 </r>
       <r>   10.3378    0.0000 </r>
       <r>   12.9274    0.0000 </r>
       <r>   13.2683    0.0000 </r>
       <r>   14.8291    0.0000 </r>
       <r>   15.1552    0.0000 </r>
       <r>   16.7785    0.0000 </r>
       <r>   17.4498    0.0000 </r>
      </set>
      <set comment="kpoint 27">
       <r>  -11.7283    1.0000 </r>
       <r>  -11.7166    1.0000 </r>
       <r>  -11.7011    1.0000 </r>
       <r>  -11.6922    1.0000 </r>
       <r>  -11.6890    1.0000 </r>
       <r>   -5.6221    1.0000 </r>
       <r>   -2.6826    1.0000 </r>
       <r>    3.5042    1.0000 </r>
       <r>    3.5248    1.0000 </r>
       <r>    4.0172    1.0000 </r>
       <r>    6.9804    0.0000 </r>
       <r>    7.7009    0.0000 </r>
       <r>    7.7386    0.0000 </r>
       <r>   10.8217    0.0000 </r>
       <r>   13.5440    0.0000 </r>
       <r>   13.9382    0.0000 </r>
       <r>   15.0748    0.0000 </r>
       <r>   15.8680    0.0000 </r>
       <r>   17.0163    0.0000 </r>
       <r>   17.1682    0.0000 </r>
      </set>
      <set comment="kpoint 28">
       <r>  -11.7289    1.0000 </r>
       <r>  -11.7189    1.0000 </r>
       <r>  -11.6997    1.0000 </r>
       <r>  -11.6911    1.0000 </r>
       <r>  -11.6878    1.0000 </r>
       <r>   -5.3790    1.0000 </r>
       <r>   -3.0491    1.0000 </r>
       <r>    3.3593    1.0000 </r>
       <r>    3.6437    1.0000 </r>
       <r>    4.0293    1.0000 </r>
       <r>    6.9329    0.0000 </r>
       <r>    7.3259    0.0000 </r>
       <r>    7.6312    0.0000 </r>
       <r>   11.4778    0.0000 </r>
       <r>   14.2216    0.0000 </r>
       <r>   14.4053    0.0000 </r>
       <r>   14.4583    0.0000 </r>
       <r>   15.5619    0.0000 </r>
       <r>   17.6075    0.0000 </r>
       <r>   17.7283    0.0000 </r>
      </set>
      <set comment="kpoint 29">
       <r>  -11.7283    1.0000 </r>
       <r>  -11.7207    1.0000 </r>
       <r>  -11.6988    1.0000 </r>
       <r>  -11.6904    1.0000 </r>
       <r>  -11.6879    1.0000 </r>
       <r>   -5.2492    1.0000 </r>
       <r>   -3.2358    1.0000 </r>
       <r>    3.1383    1.0000 </r>
       <r>    3.8322    1.0000 </r>
       <r>    4.2131    1.0000 </r>
       <r>    6.6856    0.0000 </r>
       <r>    6.9722    0.0000 </r>
       <r>    7.8435    0.0000 </r>
       <r>   12.2412    0.0000 </r>
       <r>   13.4749    0.0000 </r>
       <r>   14.0343    0.0000 </r>
       <r>   15.0198    0.0000 </r>
       <r>   16.0043    0.0000 </r>
       <r>   16.9469    0.0000 </r>
       <r>   18.5690    0.0000 </r>
      </set>
      <set comment="kpoint 30">
       <r>  -11.7265    1.0000 </r>
       <r>  -11.7216    1.0000 </r>
       <r>  -11.6986    1.0000 </r>
       <r>  -11.6903    1.0000 </r>
       <r>  -11.6891    1.0000 </r>
       <r>   -5.3153    1.0000 </r>
       <r>   -3.1545    1.0000 </r>
       <r>    2.9737    1.0000 </r>
       <r>    4.0457    1.0000 </r>
       <r>    4.4616    1.0000 </r>
       <r>    6.4391    0.0000 </r>
       <r>    6.7054    0.0000 </r>
       <r>    8.1422    0.0000 </r>
       <r>   12.3839    0.0000 </r>
       <r>   13.2789    0.0000 </r>
       <r>   13.4091    0.0000 </r>
       <r>   15.3590    0.0000 </r>
       <r>   16.2346    0.0000 </r>
       <r>   16.9370    0.0000 </r>
       <r>   17.8279    0.0000 </r>
      </set>
      <set comment="kpoint 31">
       <r>  -11.7237    1.0000 </r>
       <r>  -11.7217    1.0000 </r>
       <r>  -11.6990    1.0000 </r>
       <r>  -11.6913    1.0000 </r>
       <r>  -11.6907    1.0000 </r>
       <r>   -5.5323    1.0000 </r>
       <r>   -2.8535    1.0000 </r>
       <r>    2.8950    1.0000 </r>
       <r>    4.2386    1.0000 </r>
       <r>    4.7159    1.0000 </r>
       <r>    6.2714    0.0000 </r>
       <r>    6.5677    0.0000 </r>
       <r>    8.4634    0.0000 </r>
       <r>   11.7531    0.0000 </r>
       <r>   12.5859    0.0000 </r>
       <r>   14.2752    0.0000 </r>
       <r>   14.8014    0.0000 </r>
       <r>   15.5834    0.0000 </r>
       <r>   18.0011    0.0000 </r>
       <r>   18.0068    0.0000 </r>
      </set>
      <set comment="kpoint 32">
       <r>  -11.7209    1.0000 </r>
       <r>  -11.7205    1.0000 </r>
       <r>  -11.6999    1.0000 </r>
       <r>  -11.6940    1.0000 </r>
       <r>  -11.6919    1.0000 </r>
       <r>   -5.7982    1.0000 </r>
       <r>   -2.4475    1.0000 </r>
       <r>    2.9135    1.0000 </r>
       <r>    4.3468    1.0000 </r>
       <r>    4.8697    1.0000 </r>
       <r>    6.2772    0.0000 </r>
       <r>    6.6143    0.0000 </r>
       <r>    8.7618    0.0000 </r>
       <r>   11.2547    0.0000 </r>
       <r>   12.0136    0.0000 </r>
       <r>   13.9469    0.0000 </r>
       <r>   14.3871    0.0000 </r>
       <r>   15.5820    0.0000 </r>
       <r>   17.3030    0.0000 </r>
       <r>   17.7244    0.0000 </r>
      </set>
      <set comment="kpoint 33">
       <r>  -11.7195    1.0000 </r>
       <r>  -11.7174    1.0000 </r>
       <r>  -11.7009    1.0000 </r>
       <r>  -11.6967    1.0000 </r>
       <r>  -11.6937    1.0000 </r>
       <r>   -6.0496    1.0000 </r>
       <r>   -2.0198    1.0000 </r>
       <r>    3.0334    1.0000 </r>
       <r>    4.3319    1.0000 </r>
       <r>    4.8134    1.0000 </r>
       <r>    6.5493    0.0000 </r>
       <r>    6.8718    0.0000 </r>
       <r>    8.9753    0.0000 </r>
       <r>   10.9496    0.0000 </r>
       <r>   11.5827    0.0000 </r>
       <r>   13.1681    0.0000 </r>
       <r>   13.6284    0.0000 </r>
       <r>   16.0056    0.0000 </r>
       <r>   16.0861    0.0000 </r>
       <r>   16.6287    0.0000 </r>
      </set>
      <set comment="kpoint 34">
       <r>  -11.7177    1.0000 </r>
       <r>  -11.7150    1.0000 </r>
       <r>  -11.7017    1.0000 </r>
       <r>  -11.6988    1.0000 </r>
       <r>  -11.6961    1.0000 </r>
       <r>   -6.2566    1.0000 </r>
       <r>   -1.6269    1.0000 </r>
       <r>    3.2514    1.0000 </r>
       <r>    4.2162    1.0000 </r>
       <r>    4.5887    1.0000 </r>
       <r>    7.0337    0.0000 </r>
       <r>    7.3021    0.0000 </r>
       <r>    9.0286    0.0000 </r>
       <r>   10.7670    0.0000 </r>
       <r>   11.3039    0.0000 </r>
       <r>   12.4381    0.0000 </r>
       <r>   13.1802    0.0000 </r>
       <r>   14.9939    0.0000 </r>
       <r>   15.4198    0.0000 </r>
       <r>   15.5904    0.0000 </r>
      </set>
      <set comment="kpoint 35">
       <r>  -11.7248    1.0000 </r>
       <r>  -11.7091    1.0000 </r>
       <r>  -11.7052    1.0000 </r>
       <r>  -11.6955    1.0000 </r>
       <r>  -11.6955    1.0000 </r>
       <r>   -6.2128    1.0000 </r>
       <r>   -1.5515    1.0000 </r>
       <r>    3.2790    1.0000 </r>
       <r>    3.2790    1.0000 </r>
       <r>    4.5093    1.0000 </r>
       <r>    6.8497    0.0000 </r>
       <r>    9.2101    0.0000 </r>
       <r>    9.2101    0.0000 </r>
       <r>    9.5637    0.0000 </r>
       <r>   12.6388    0.0000 </r>
       <r>   12.6388    0.0000 </r>
       <r>   13.0791    0.0000 </r>
       <r>   13.3832    0.0000 </r>
       <r>   14.9063    0.0000 </r>
       <r>   17.3096    0.0000 </r>
      </set>
      <set comment="kpoint 36">
       <r>  -11.7289    1.0000 </r>
       <r>  -11.7090    1.0000 </r>
       <r>  -11.7055    1.0000 </r>
       <r>  -11.6935    1.0000 </r>
       <r>  -11.6930    1.0000 </r>
       <r>   -6.0515    1.0000 </r>
       <r>   -1.7900    1.0000 </r>
       <r>    3.1693    1.0000 </r>
       <r>    3.1843    1.0000 </r>
       <r>    4.0593    1.0000 </r>
       <r>    7.2023    0.0000 </r>
       <r>    9.0565    0.0000 </r>
       <r>    9.1592    0.0000 </r>
       <r>    9.5425    0.0000 </r>
       <r>   13.0226    0.0000 </r>
       <r>   13.1315    0.0000 </r>
       <r>   13.5619    0.0000 </r>
       <r>   13.7861    0.0000 </r>
       <r>   15.6741    0.0000 </r>
       <r>   18.1653    0.0000 </r>
      </set>
      <set comment="kpoint 37">
       <r>  -11.7323    1.0000 </r>
       <r>  -11.7103    1.0000 </r>
       <r>  -11.7049    1.0000 </r>
       <r>  -11.6918    1.0000 </r>
       <r>  -11.6903    1.0000 </r>
       <r>   -5.8396    1.0000 </r>
       <r>   -2.1210    1.0000 </r>
       <r>    3.1294    1.0000 </r>
       <r>    3.1559    1.0000 </r>
       <r>    3.6063    1.0000 </r>
       <r>    7.5911    0.0000 </r>
       <r>    8.7309    0.0000 </r>
       <r>    8.8705    0.0000 </r>
       <r>    9.7056    0.0000 </r>
       <r>   13.4507    0.0000 </r>
       <r>   13.6844    0.0000 </r>
       <r>   14.3255    0.0000 </r>
       <r>   14.5537    0.0000 </r>
       <r>   16.7341    0.0000 </r>
       <r>   17.7069    0.0000 </r>
      </set>
      <set comment="kpoint 38">
       <r>  -11.7345    1.0000 </r>
       <r>  -11.7123    1.0000 </r>
       <r>  -11.7035    1.0000 </r>
       <r>  -11.6907    1.0000 </r>
       <r>  -11.6880    1.0000 </r>
       <r>   -5.5966    1.0000 </r>
       <r>   -2.4953    1.0000 </r>
       <r>    3.0030    1.0000 </r>
       <r>    3.1635    1.0000 </r>
       <r>    3.4084    1.0000 </r>
       <r>    7.8584    0.0000 </r>
       <r>    8.4632    0.0000 </r>
       <r>    8.4707    0.0000 </r>
       <r>   10.0410    0.0000 </r>
       <r>   14.0103    0.0000 </r>
       <r>   14.3243    0.0000 </r>
       <r>   14.8461    0.0000 </r>
       <r>   15.3514    0.0000 </r>
       <r>   16.9177    0.0000 </r>
       <r>   16.9559    0.0000 </r>
      </set>
      <set comment="kpoint 39">
       <r>  -11.7352    1.0000 </r>
       <r>  -11.7148    1.0000 </r>
       <r>  -11.7014    1.0000 </r>
       <r>  -11.6904    1.0000 </r>
       <r>  -11.6868    1.0000 </r>
       <r>   -5.3597    1.0000 </r>
       <r>   -2.8467    1.0000 </r>
       <r>    2.6945    1.0000 </r>
       <r>    3.2719    1.0000 </r>
       <r>    3.5170    1.0000 </r>
       <r>    7.7311    0.0000 </r>
       <r>    8.0408    0.0000 </r>
       <r>    8.5485    0.0000 </r>
       <r>   10.5722    0.0000 </r>
       <r>   14.3525    0.0000 </r>
       <r>   14.7225    0.0000 </r>
       <r>   14.7291    0.0000 </r>
       <r>   15.5862    0.0000 </r>
       <r>   17.1320    0.0000 </r>
       <r>   17.4463    0.0000 </r>
      </set>
      <set comment="kpoint 40">
       <r>  -11.7342    1.0000 </r>
       <r>  -11.7171    1.0000 </r>
       <r>  -11.6992    1.0000 </r>
       <r>  -11.6908    1.0000 </r>
       <r>  -11.6868    1.0000 </r>
       <r>   -5.1974    1.0000 </r>
       <r>   -3.0864    1.0000 </r>
       <r>    2.4488    1.0000 </r>
       <r>    3.4503    1.0000 </r>
       <r>    3.7248    1.0000 </r>
       <r>    7.4049    0.0000 </r>
       <r>    7.6212    0.0000 </r>
       <r>    8.8145    0.0000 </r>
       <r>   11.2768    0.0000 </r>
       <r>   13.5367    0.0000 </r>
       <r>   14.1423    0.0000 </r>
       <r>   15.3741    0.0000 </r>
       <r>   16.2530    0.0000 </r>
       <r>   17.9648    0.0000 </r>
       <r>   18.1411    0.0000 </r>
      </set>
      <set comment="kpoint 41">
       <r>  -11.7318    1.0000 </r>
       <r>  -11.7190    1.0000 </r>
       <r>  -11.6973    1.0000 </r>
       <r>  -11.6916    1.0000 </r>
       <r>  -11.6880    1.0000 </r>
       <r>   -5.1927    1.0000 </r>
       <r>   -3.1219    1.0000 </r>
       <r>    2.3102    1.0000 </r>
       <r>    3.6873    1.0000 </r>
       <r>    3.9963    1.0000 </r>
       <r>    7.0668    0.0000 </r>
       <r>    7.2353    0.0000 </r>
       <r>    9.0755    0.0000 </r>
       <r>   12.0711    0.0000 </r>
       <r>   12.8009    0.0000 </r>
       <r>   13.3861    0.0000 </r>
       <r>   15.6637    0.0000 </r>
       <r>   17.0024    0.0000 </r>
       <r>   17.1966    0.0000 </r>
       <r>   18.0038    0.0000 </r>
      </set>
      <set comment="kpoint 42">
       <r>  -11.7283    1.0000 </r>
       <r>  -11.7203    1.0000 </r>
       <r>  -11.6970    1.0000 </r>
       <r>  -11.6920    1.0000 </r>
       <r>  -11.6900    1.0000 </r>
       <r>   -5.3505    1.0000 </r>
       <r>   -2.9486    1.0000 </r>
       <r>    2.2945    1.0000 </r>
       <r>    3.9581    1.0000 </r>
       <r>    4.3161    1.0000 </r>
       <r>    6.7460    0.0000 </r>
       <r>    6.9083    0.0000 </r>
       <r>    9.2738    0.0000 </r>
       <r>   12.0056    0.0000 </r>
       <r>   12.7190    0.0000 </r>
       <r>   13.1968    0.0000 </r>
       <r>   15.0830    0.0000 </r>
       <r>   16.0903    0.0000 </r>
       <r>   18.2358    0.0000 </r>
       <r>   18.3871    0.0000 </r>
      </set>
      <set comment="kpoint 43">
       <r>  -11.7243    1.0000 </r>
       <r>  -11.7207    1.0000 </r>
       <r>  -11.6981    1.0000 </r>
       <r>  -11.6925    1.0000 </r>
       <r>  -11.6919    1.0000 </r>
       <r>   -5.5890    1.0000 </r>
       <r>   -2.6565    1.0000 </r>
       <r>    2.4112    1.0000 </r>
       <r>    4.2113    1.0000 </r>
       <r>    4.6469    1.0000 </r>
       <r>    6.4699    0.0000 </r>
       <r>    6.6869    0.0000 </r>
       <r>    9.3505    0.0000 </r>
       <r>   11.5926    0.0000 </r>
       <r>   12.1872    0.0000 </r>
       <r>   13.9319    0.0000 </r>
       <r>   14.5095    0.0000 </r>
       <r>   15.2076    0.0000 </r>
       <r>   18.1951    0.0000 </r>
       <r>   18.7627    0.0000 </r>
      </set>
      <set comment="kpoint 44">
       <r>  -11.7205    1.0000 </r>
       <r>  -11.7204    1.0000 </r>
       <r>  -11.6997    1.0000 </r>
       <r>  -11.6949    1.0000 </r>
       <r>  -11.6924    1.0000 </r>
       <r>   -5.8352    1.0000 </r>
       <r>   -2.3301    1.0000 </r>
       <r>    2.6615    1.0000 </r>
       <r>    4.3595    1.0000 </r>
       <r>    4.8724    1.0000 </r>
       <r>    6.3445    0.0000 </r>
       <r>    6.6528    0.0000 </r>
       <r>    9.2625    0.0000 </r>
       <r>   11.2597    0.0000 </r>
       <r>   11.8068    0.0000 </r>
       <r>   13.6005    0.0000 </r>
       <r>   14.1286    0.0000 </r>
       <r>   15.5032    0.0000 </r>
       <r>   17.0388    0.0000 </r>
       <r>   17.6895    0.0000 </r>
      </set>
      <set comment="kpoint 45">
       <r>  -11.7343    1.0000 </r>
       <r>  -11.7072    1.0000 </r>
       <r>  -11.7068    1.0000 </r>
       <r>  -11.6912    1.0000 </r>
       <r>  -11.6912    1.0000 </r>
       <r>   -5.9198    1.0000 </r>
       <r>   -1.8744    1.0000 </r>
       <r>    2.9970    1.0000 </r>
       <r>    2.9970    1.0000 </r>
       <r>    3.4668    1.0000 </r>
       <r>    7.8182    0.0000 </r>
       <r>    9.1464    0.0000 </r>
       <r>    9.4669    0.0000 </r>
       <r>    9.4669    0.0000 </r>
       <r>   13.4479    0.0000 </r>
       <r>   13.6967    0.0000 </r>
       <r>   13.6971    0.0000 </r>
       <r>   13.6971    0.0000 </r>
       <r>   16.1273    0.0000 </r>
       <r>   18.8705    0.0000 </r>
      </set>
      <set comment="kpoint 46">
       <r>  -11.7388    1.0000 </r>
       <r>  -11.7071    1.0000 </r>
       <r>  -11.7071    1.0000 </r>
       <r>  -11.6892    1.0000 </r>
       <r>  -11.6888    1.0000 </r>
       <r>   -5.7400    1.0000 </r>
       <r>   -2.0631    1.0000 </r>
       <r>    2.8527    1.0000 </r>
       <r>    2.9002    1.0000 </r>
       <r>    2.9873    1.0000 </r>
       <r>    8.3902    0.0000 </r>
       <r>    9.0061    0.0000 </r>
       <r>    9.4508    0.0000 </r>
       <r>    9.5351    0.0000 </r>
       <r>   13.8004    0.0000 </r>
       <r>   14.0239    0.0000 </r>
       <r>   14.3019    0.0000 </r>
       <r>   14.3514    0.0000 </r>
       <r>   16.9403    0.0000 </r>
       <r>   17.8997    0.0000 </r>
      </set>
      <set comment="kpoint 47">
       <r>  -11.7417    1.0000 </r>
       <r>  -11.7083    1.0000 </r>
       <r>  -11.7063    1.0000 </r>
       <r>  -11.6880    1.0000 </r>
       <r>  -11.6867    1.0000 </r>
       <r>   -5.5290    1.0000 </r>
       <r>   -2.3303    1.0000 </r>
       <r>    2.4292    1.0000 </r>
       <r>    2.8842    1.0000 </r>
       <r>    2.9783    1.0000 </r>
       <r>    8.7033    0.0000 </r>
       <r>    9.0595    0.0000 </r>
       <r>    9.1830    0.0000 </r>
       <r>    9.5883    0.0000 </r>
       <r>   14.3466    0.0000 </r>
       <r>   14.6624    0.0000 </r>
       <r>   14.8561    0.0000 </r>
       <r>   14.9977    0.0000 </r>
       <r>   16.9460    0.0000 </r>
       <r>   17.0128    0.0000 </r>
      </set>
      <set comment="kpoint 48">
       <r>  -11.7426    1.0000 </r>
       <r>  -11.7104    1.0000 </r>
       <r>  -11.7044    1.0000 </r>
       <r>  -11.6878    1.0000 </r>
       <r>  -11.6854    1.0000 </r>
       <r>   -5.3162    1.0000 </r>
       <r>   -2.6257    1.0000 </r>
       <r>    2.0748    1.0000 </r>
       <r>    2.9511    1.0000 </r>
       <r>    3.0984    1.0000 </r>
       <r>    8.4908    0.0000 </r>
       <r>    8.7857    0.0000 </r>
       <r>    9.4269    0.0000 </r>
       <r>    9.8730    0.0000 </r>
       <r>   14.4776    0.0000 </r>
       <r>   15.0265    0.0000 </r>
       <r>   15.2131    0.0000 </r>
       <r>   15.5087    0.0000 </r>
       <r>   16.8434    0.0000 </r>
       <r>   17.0323    0.0000 </r>
      </set>
      <set comment="kpoint 49">
       <r>  -11.7414    1.0000 </r>
       <r>  -11.7129    1.0000 </r>
       <r>  -11.7018    1.0000 </r>
       <r>  -11.6887    1.0000 </r>
       <r>  -11.6854    1.0000 </r>
       <r>   -5.1500    1.0000 </r>
       <r>   -2.8794    1.0000 </r>
       <r>    1.8439    1.0000 </r>
       <r>    3.0992    1.0000 </r>
       <r>    3.2968    1.0000 </r>
       <r>    8.1362    0.0000 </r>
       <r>    8.3351    0.0000 </r>
       <r>    9.7316    0.0000 </r>
       <r>   10.4212    0.0000 </r>
       <r>   13.7940    0.0000 </r>
       <r>   14.3602    0.0000 </r>
       <r>   15.7333    0.0000 </r>
       <r>   16.4070    0.0000 </r>
       <r>   17.6213    0.0000 </r>
       <r>   17.9317    0.0000 </r>
      </set>
      <set comment="kpoint 50">
       <r>  -11.7384    1.0000 </r>
       <r>  -11.7155    1.0000 </r>
       <r>  -11.6987    1.0000 </r>
       <r>  -11.6905    1.0000 </r>
       <r>  -11.6864    1.0000 </r>
       <r>   -5.0937    1.0000 </r>
       <r>   -3.0142    1.0000 </r>
       <r>    1.7535    1.0000 </r>
       <r>    3.3226    1.0000 </r>
       <r>    3.5631    1.0000 </r>
       <r>    7.7375    0.0000 </r>
       <r>    7.8687    0.0000 </r>
       <r>    9.9084    0.0000 </r>
       <r>   11.1713    0.0000 </r>
       <r>   13.0850    0.0000 </r>
       <r>   13.6240    0.0000 </r>
       <r>   15.6864    0.0000 </r>
       <r>   17.3692    0.0000 </r>
       <r>   17.6553    0.0000 </r>
       <r>   18.5991    0.0000 </r>
      </set>
      <set comment="kpoint 51">
       <r>  -11.7340    1.0000 </r>
       <r>  -11.7179    1.0000 </r>
       <r>  -11.6958    1.0000 </r>
       <r>  -11.6929    1.0000 </r>
       <r>  -11.6883    1.0000 </r>
       <r>   -5.1794    1.0000 </r>
       <r>   -2.9922    1.0000 </r>
       <r>    1.8162    1.0000 </r>
       <r>    3.6077    1.0000 </r>
       <r>    3.8907    1.0000 </r>
       <r>    7.3130    0.0000 </r>
       <r>    7.4105    0.0000 </r>
       <r>    9.9174    0.0000 </r>
       <r>   12.0632    0.0000 </r>
       <r>   12.5415    0.0000 </r>
       <r>   12.9960    0.0000 </r>
       <r>   14.9798    0.0000 </r>
       <r>   17.2205    0.0000 </r>
       <r>   18.3364    0.0000 </r>
       <r>   18.7144    0.0000 </r>
      </set>
      <set comment="kpoint 52">
       <r>  -11.7290    1.0000 </r>
       <r>  -11.7197    1.0000 </r>
       <r>  -11.6958    1.0000 </r>
       <r>  -11.6932    1.0000 </r>
       <r>  -11.6905    1.0000 </r>
       <r>   -5.3668    1.0000 </r>
       <r>   -2.8518    1.0000 </r>
       <r>    2.0376    1.0000 </r>
       <r>    3.9255    1.0000 </r>
       <r>    4.2668    1.0000 </r>
       <r>    6.8741    0.0000 </r>
       <r>    6.9937    0.0000 </r>
       <r>    9.7314    0.0000 </r>
       <r>   12.0564    0.0000 </r>
       <r>   12.5139    0.0000 </r>
       <r>   13.0827    0.0000 </r>
       <r>   14.4301    0.0000 </r>
       <r>   16.2397    0.0000 </r>
       <r>   19.0339    0.0000 </r>
       <r>   19.0547    0.0000 </r>
      </set>
      <set comment="kpoint 53">
       <r>  -11.7445    1.0000 </r>
       <r>  -11.7084    1.0000 </r>
       <r>  -11.7055    1.0000 </r>
       <r>  -11.6869    1.0000 </r>
       <r>  -11.6869    1.0000 </r>
       <r>   -5.5977    1.0000 </r>
       <r>   -2.0946    1.0000 </r>
       <r>    2.3562    1.0000 </r>
       <r>    2.7491    1.0000 </r>
       <r>    2.7491    1.0000 </r>
       <r>    8.8289    0.0000 </r>
       <r>    9.1204    0.0000 </r>
       <r>    9.7769    0.0000 </r>
       <r>    9.7769    0.0000 </r>
       <r>   13.9376    0.0000 </r>
       <r>   14.0900    0.0000 </r>
       <r>   14.8479    0.0000 </r>
       <r>   14.8479    0.0000 </r>
       <r>   17.4713    0.0000 </r>
       <r>   18.0784    0.0000 </r>
      </set>
      <set comment="kpoint 54">
       <r>  -11.7485    1.0000 </r>
       <r>  -11.7085    1.0000 </r>
       <r>  -11.7054    1.0000 </r>
       <r>  -11.6854    1.0000 </r>
       <r>  -11.6851    1.0000 </r>
       <r>   -5.4285    1.0000 </r>
       <r>   -2.2210    1.0000 </r>
       <r>    1.8915    1.0000 </r>
       <r>    2.6828    1.0000 </r>
       <r>    2.7050    1.0000 </r>
       <r>    8.7816    0.0000 </r>
       <r>    9.6450    0.0000 </r>
       <r>    9.7638    0.0000 </r>
       <r>    9.8876    0.0000 </r>
       <r>   14.3589    0.0000 </r>
       <r>   14.4975    0.0000 </r>
       <r>   15.3788    0.0000 </r>
       <r>   15.3993    0.0000 </r>
       <r>   17.0958    0.0000 </r>
       <r>   17.2210    0.0000 </r>
      </set>
      <set comment="kpoint 55">
       <r>  -11.7499    1.0000 </r>
       <r>  -11.7073    1.0000 </r>
       <r>  -11.7067    1.0000 </r>
       <r>  -11.6850    1.0000 </r>
       <r>  -11.6839    1.0000 </r>
       <r>   -5.2560    1.0000 </r>
       <r>   -2.4199    1.0000 </r>
       <r>    1.5528    1.0000 </r>
       <r>    2.7044    1.0000 </r>
       <r>    2.7760    1.0000 </r>
       <r>    8.8449    0.0000 </r>
       <r>    9.4807    0.0000 </r>
       <r>    9.6439    0.0000 </r>
       <r>   10.2529    0.0000 </r>
       <r>   14.6860    0.0000 </r>
       <r>   15.1412    0.0000 </r>
       <r>   15.5076    0.0000 </r>
       <r>   15.6814    0.0000 </r>
       <r>   16.8194    0.0000 </r>
       <r>   16.9355    0.0000 </r>
      </set>
      <set comment="kpoint 56">
       <r>  -11.7487    1.0000 </r>
       <r>  -11.7089    1.0000 </r>
       <r>  -11.7051    1.0000 </r>
       <r>  -11.6858    1.0000 </r>
       <r>  -11.6838    1.0000 </r>
       <r>   -5.1132    1.0000 </r>
       <r>   -2.6456    1.0000 </r>
       <r>    1.3634    1.0000 </r>
       <r>    2.8139    1.0000 </r>
       <r>    2.9431    1.0000 </r>
       <r>    8.7368    0.0000 </r>
       <r>    9.0431    0.0000 </r>
       <r>    9.8146    0.0000 </r>
       <r>   10.5158    0.0000 </r>
       <r>   14.2327    0.0000 </r>
       <r>   14.7027    0.0000 </r>
       <r>   16.0621    0.0000 </r>
       <r>   16.1704    0.0000 </r>
       <r>   17.3747    0.0000 </r>
       <r>   17.5575    0.0000 </r>
      </set>
      <set comment="kpoint 57">
       <r>  -11.7452    1.0000 </r>
       <r>  -11.7118    1.0000 </r>
       <r>  -11.7020    1.0000 </r>
       <r>  -11.6878    1.0000 </r>
       <r>  -11.6847    1.0000 </r>
       <r>   -5.0392    1.0000 </r>
       <r>   -2.8419    1.0000 </r>
       <r>    1.3401    1.0000 </r>
       <r>    3.0078    1.0000 </r>
       <r>    3.1910    1.0000 </r>
       <r>    8.3647    0.0000 </r>
       <r>    8.5247    0.0000 </r>
       <r>   10.3626    0.0000 </r>
       <r>   10.5571    0.0000 </r>
       <r>   13.6199    0.0000 </r>
       <r>   14.0054    0.0000 </r>
       <r>   15.8052    0.0000 </r>
       <r>   17.1044    0.0000 </r>
       <r>   17.9004    0.0000 </r>
       <r>   18.3962    0.0000 </r>
      </set>
      <set comment="kpoint 58">
       <r>  -11.7400    1.0000 </r>
       <r>  -11.7149    1.0000 </r>
       <r>  -11.6986    1.0000 </r>
       <r>  -11.6904    1.0000 </r>
       <r>  -11.6864    1.0000 </r>
       <r>   -5.0629    1.0000 </r>
       <r>   -2.9621    1.0000 </r>
       <r>    1.4921    1.0000 </r>
       <r>    3.2781    1.0000 </r>
       <r>    3.5097    1.0000 </r>
       <r>    7.8696    0.0000 </r>
       <r>    7.9679    0.0000 </r>
       <r>   10.3506    0.0000 </r>
       <r>   11.1462    0.0000 </r>
       <r>   13.0675    0.0000 </r>
       <r>   13.4253    0.0000 </r>
       <r>   15.2263    0.0000 </r>
       <r>   17.9406    0.0000 </r>
       <r>   18.0948    0.0000 </r>
       <r>   18.6725    0.0000 </r>
      </set>
      <set comment="kpoint 59">
       <r>  -11.7534    1.0000 </r>
       <r>  -11.7095    1.0000 </r>
       <r>  -11.7040    1.0000 </r>
       <r>  -11.6835    1.0000 </r>
       <r>  -11.6835    1.0000 </r>
       <r>   -5.3094    1.0000 </r>
       <r>   -2.1964    1.0000 </r>
       <r>    1.4568    1.0000 </r>
       <r>    2.5677    1.0000 </r>
       <r>    2.5677    1.0000 </r>
       <r>    8.6160    0.0000 </r>
       <r>   10.0678    0.0000 </r>
       <r>   10.0678    0.0000 </r>
       <r>   10.3977    0.0000 </r>
       <r>   14.5360    0.0000 </r>
       <r>   14.5695    0.0000 </r>
       <r>   15.9217    0.0000 </r>
       <r>   15.9217    0.0000 </r>
       <r>   17.0588    0.0000 </r>
       <r>   17.2996    0.0000 </r>
      </set>
      <set comment="kpoint 60">
       <r>  -11.7555    1.0000 </r>
       <r>  -11.7094    1.0000 </r>
       <r>  -11.7042    1.0000 </r>
       <r>  -11.6828    1.0000 </r>
       <r>  -11.6825    1.0000 </r>
       <r>   -5.1910    1.0000 </r>
       <r>   -2.2690    1.0000 </r>
       <r>    1.1626    1.0000 </r>
       <r>    2.5430    1.0000 </r>
       <r>    2.5622    1.0000 </r>
       <r>    8.6336    0.0000 </r>
       <r>   10.0145    0.0000 </r>
       <r>   10.0390    0.0000 </r>
       <r>   10.8763    0.0000 </r>
       <r>   14.9355    0.0000 </r>
       <r>   14.9783    0.0000 </r>
       <r>   15.9431    0.0000 </r>
       <r>   16.0127    0.0000 </r>
       <r>   16.8214    0.0000 </r>
       <r>   17.1043    0.0000 </r>
      </set>
      <set comment="kpoint 61">
       <r>  -11.7547    1.0000 </r>
       <r>  -11.7079    1.0000 </r>
       <r>  -11.7058    1.0000 </r>
       <r>  -11.6833    1.0000 </r>
       <r>  -11.6824    1.0000 </r>
       <r>   -5.0947    1.0000 </r>
       <r>   -2.4260    1.0000 </r>
       <r>    1.0370    1.0000 </r>
       <r>    2.6099    1.0000 </r>
       <r>    2.6763    1.0000 </r>
       <r>    8.8008    0.0000 </r>
       <r>    9.6695    0.0000 </r>
       <r>    9.8335    0.0000 </r>
       <r>   11.0773    0.0000 </r>
       <r>   14.8194    0.0000 </r>
       <r>   15.1805    0.0000 </r>
       <r>   15.6749    0.0000 </r>
       <r>   16.1774    0.0000 </r>
       <r>   17.0711    0.0000 </r>
       <r>   17.6723    0.0000 </r>
      </set>
      <set comment="kpoint 62">
       <r>  -11.7510    1.0000 </r>
       <r>  -11.7084    1.0000 </r>
       <r>  -11.7053    1.0000 </r>
       <r>  -11.6851    1.0000 </r>
       <r>  -11.6832    1.0000 </r>
       <r>   -5.0399    1.0000 </r>
       <r>   -2.6321    1.0000 </r>
       <r>    1.0962    1.0000 </r>
       <r>    2.7666    1.0000 </r>
       <r>    2.8915    1.0000 </r>
       <r>    8.8073    0.0000 </r>
       <r>    9.1452    0.0000 </r>
       <r>    9.8351    0.0000 </r>
       <r>   10.9615    0.0000 </r>
       <r>   14.2297    0.0000 </r>
       <r>   14.5367    0.0000 </r>
       <r>   16.1474    0.0000 </r>
       <r>   16.4161    0.0000 </r>
       <r>   17.3957    0.0000 </r>
       <r>   18.0164    0.0000 </r>
      </set>
      <set comment="kpoint 63">
       <r>  -11.7585    1.0000 </r>
       <r>  -11.7102    1.0000 </r>
       <r>  -11.7033    1.0000 </r>
       <r>  -11.6816    1.0000 </r>
       <r>  -11.6816    1.0000 </r>
       <r>   -5.1354    1.0000 </r>
       <r>   -2.2114    1.0000 </r>
       <r>    0.9336    1.0000 </r>
       <r>    2.4724    1.0000 </r>
       <r>    2.4724    1.0000 </r>
       <r>    8.5093    0.0000 </r>
       <r>   10.2493    0.0000 </r>
       <r>   10.2493    0.0000 </r>
       <r>   11.2775    0.0000 </r>
       <r>   14.9232    0.0000 </r>
       <r>   15.3479    0.0000 </r>
       <r>   16.2352    0.0000 </r>
       <r>   16.4324    0.0000 </r>
       <r>   16.4324    0.0000 </r>
       <r>   16.7006    0.0000 </r>
      </set>
      <set comment="kpoint 64">
       <r>  -11.7582    1.0000 </r>
       <r>  -11.7097    1.0000 </r>
       <r>  -11.7038    1.0000 </r>
       <r>  -11.6818    1.0000 </r>
       <r>  -11.6816    1.0000 </r>
       <r>   -5.1014    1.0000 </r>
       <r>   -2.2679    1.0000 </r>
       <r>    0.8895    1.0000 </r>
       <r>    2.4949    1.0000 </r>
       <r>    2.5134    1.0000 </r>
       <r>    8.5829    0.0000 </r>
       <r>   10.1125    0.0000 </r>
       <r>   10.1450    0.0000 </r>
       <r>   11.3530    0.0000 </r>
       <r>   15.1889    0.0000 </r>
       <r>   15.4826    0.0000 </r>
       <r>   15.8293    0.0000 </r>
       <r>   15.8431    0.0000 </r>
       <r>   16.9210    0.0000 </r>
       <r>   17.3025    0.0000 </r>
      </set>
      <set comment="kpoint 65">
       <r>  -11.7176    1.0000 </r>
       <r>  -11.7121    1.0000 </r>
       <r>  -11.7030    1.0000 </r>
       <r>  -11.6993    1.0000 </r>
       <r>  -11.6982    1.0000 </r>
       <r>   -6.3928    1.0000 </r>
       <r>   -1.3085    1.0000 </r>
       <r>    3.4672    1.0000 </r>
       <r>    3.7875    1.0000 </r>
       <r>    4.5677    1.0000 </r>
[...]
       </set>
       <set comment="band 16">
        <r>  0.0270  0.0064  0.0034  0.0032  0.0215  0.1183  0.0121  0.0592  0.0027 </r>
        <r>  0.0554  0.0022  0.0035  0.0011  0.0055  0.0474  0.0014  0.0237  0.0007 </r>
       </set>
       <set comment="band 17">
        <r>  0.0000  0.0013  0.0000  0.0025  0.0052  0.0401  0.0000  0.0801  0.0420 </r>
        <r>  0.0000  0.0158  0.0000  0.0315  0.0005  0.0020  0.0000  0.0040  0.0037 </r>
       </set>
       <set comment="band 18">
        <r>  0.0305  0.0057  0.0038  0.0029  0.1011  0.0128  0.0531  0.0064  0.0126 </r>
        <r>  0.0453  0.0035  0.0005  0.0018  0.0377  0.0017  0.0163  0.0009  0.0047 </r>
       </set>
       <set comment="band 19">
        <r>  0.0000  0.0041  0.0000  0.0080  0.0182  0.0219  0.0000  0.0438  0.1459 </r>
        <r>  0.0000  0.0073  0.0000  0.0144  0.0000  0.0001  0.0000  0.0001  0.0002 </r>
       </set>
       <set comment="band 20">
        <r>  0.0001  0.0029  0.0179  0.0015  0.0257  0.0001  0.0005  0.0000  0.0033 </r>
        <r>  0.0069  0.0188  0.0298  0.0095  0.0013  0.0002  0.0000  0.0001  0.0002 </r>
       </set>
      </set>
      <set comment="kpoint 117">
       <set comment="band 1">
        <r>  0.0035  0.0001  0.0000  0.0001  0.0000  0.0000  0.0000  0.0000  0.0000 </r>
        <r>  0.0000  0.0000  0.0000  0.0000  0.6062  0.0750  0.2184  0.0187  0.0511 </r>
       </set>
       <set comment="band 2">
        <r>  0.0000  0.0002  0.0002  0.0000  0.0000  0.0000  0.0000  0.0000  0.0000 </r>
        <r>  0.0000  0.0000  0.0000  0.0000  0.0482  0.6653  0.0241  0.2046  0.0344 </r>
       </set>
       <set comment="band 3">
        <r>  0.0000  0.0000  0.0000  0.0000  0.0000  0.0000  0.0000  0.0000  0.0000 </r>
        <r>  0.0000  0.0000  0.0000  0.0000  0.2355  0.0013  0.7274  0.0027  0.0109 </r>
       </set>
       <set comment="band 4">
        <r>  0.0000  0.0000  0.0000  0.0000  0.0000  0.0000  0.0000  0.0000  0.0000 </r>
        <r>  0.0000  0.0000  0.0000  0.0000  0.0466  0.0730  0.0001  0.4287  0.4305 </r>
       </set>
       <set comment="band 5">
        <r>  0.0000  0.0000  0.0000  0.0000  0.0000  0.0000  0.0000  0.0000  0.0000 </r>
        <r>  0.0000  0.0000  0.0000  0.0000  0.0362  0.1620  0.0060  0.3240  0.4518 </r>
       </set>
       <set comment="band 6">
        <r>  0.6389  0.0000  0.0001  0.0007  0.0000  0.0000  0.0000  0.0000  0.0000 </r>
        <r>  0.0226  0.0002  0.0026  0.0051  0.0064  0.0009  0.0024  0.0006  0.0010 </r>
       </set>
       <set comment="band 7">
        <r>  0.0321  0.0007  0.0084  0.0151  0.0013  0.0003  0.0005  0.0001  0.0002 </r>
        <r>  0.6231  0.0005  0.0004  0.0000  0.0003  0.0005  0.0001  0.0000  0.0000 </r>
       </set>
       <set comment="band 8">
        <r>  0.0057  0.0962  0.0011  0.1447  0.0013  0.0002  0.0003  0.0001  0.0000 </r>
        <r>  0.0193  0.0392  0.0000  0.0798  0.0030  0.0002  0.0008  0.0005  0.0001 </r>
       </set>
       <set comment="band 9">
        <r>  0.0000  0.0875  0.1312  0.0437  0.0003  0.0000  0.0006  0.0001  0.0000 </r>
        <r>  0.0000  0.0416  0.0624  0.0208  0.0007  0.0001  0.0015  0.0002  0.0001 </r>
       </set>
       <set comment="band 10">
        <r>  0.0050  0.1333  0.1998  0.0665  0.0010  0.0003  0.0004  0.0000  0.0002 </r>
        <r>  0.0630  0.0189  0.0217  0.0037  0.0017  0.0071  0.0008  0.0013  0.0012 </r>
       </set>
       <set comment="band 11">
        <r>  0.0384  0.0249  0.0263  0.0034  0.0014  0.0149  0.0009  0.0020  0.0025 </r>
        <r>  0.0070  0.1165  0.1747  0.0582  0.0001  0.0029  0.0001  0.0005  0.0003 </r>
       </set>
       <set comment="band 12">
        <r>  0.0112  0.0854  0.0005  0.2032  0.0123  0.0003  0.0029  0.0054  0.0012 </r>
        <r>  0.0140  0.1076  0.0028  0.1386  0.0037  0.0000  0.0014  0.0000  0.0006 </r>
       </set>
       <set comment="band 13">
        <r>  0.0000  0.0712  0.1067  0.0356  0.0121  0.0003  0.0344  0.0005  0.0001 </r>
        <r>  0.0000  0.0283  0.0424  0.0141  0.0038  0.0000  0.0132  0.0000  0.0006 </r>
       </set>
       <set comment="band 14">
        <r>  0.0000  0.0294  0.0440  0.0147  0.0039  0.0005  0.0190  0.0009  0.0038 </r>
        <r>  0.0000  0.0923  0.1385  0.0462  0.0077  0.0000  0.0245  0.0000  0.0006 </r>
       </set>
       <set comment="band 15">
        <r>  0.0041  0.0011  0.0045  0.0049  0.0000  0.0056  0.0013  0.0302  0.0382 </r>
        <r>  0.0022  0.0120  0.0063  0.0853  0.0041  0.0044  0.0001  0.0168  0.0170 </r>
       </set>
       <set comment="band 16">
        <r>  0.0243  0.0002  0.0010  0.0057  0.0293  0.0927  0.0086  0.0202  0.0000 </r>
        <r>  0.0514  0.0010  0.0000  0.0027  0.0060  0.0356  0.0020  0.0134  0.0001 </r>
       </set>
       <set comment="band 17">
        <r>  0.0000  0.0009  0.0014  0.0005  0.0026  0.0245  0.0053  0.0489  0.0726 </r>
        <r>  0.0000  0.0184  0.0276  0.0092  0.0006  0.0034  0.0003  0.0068  0.0097 </r>
       </set>
       <set comment="band 18">
        <r>  0.0120  0.0046  0.0098  0.0713  0.0493  0.0168  0.0109  0.0792  0.0074 </r>
        <r>  0.0045  0.0008  0.0011  0.0094  0.0200  0.0154  0.0058  0.0006  0.0000 </r>
       </set>
       <set comment="band 19">
        <r>  0.0000  0.0096  0.0104  0.0045  0.0168  0.0374  0.0068  0.0631  0.0841 </r>
        <r>  0.0011  0.0011  0.0000  0.0036  0.0034  0.0108  0.0002  0.0172  0.0272 </r>
       </set>
       <set comment="band 20">
        <r>  0.0024  0.0051  0.0104  0.0013  0.0248  0.0110  0.0052  0.0074  0.0027 </r>
        <r>  0.0178  0.0226  0.0007  0.0651  0.0014  0.0008  0.0002  0.0118  0.0017 </r>
       </set>
      </set>
      <set comment="kpoint 118">
       <set comment="band 1">
        <r>  0.0038  0.0001  0.0000  0.0000  0.0000  0.0000  0.0000  0.0000  0.0000 </r>
        <r>  0.0000  0.0000  0.0000  0.0000  0.5179  0.1382  0.2211  0.0466  0.0452 </r>
       </set>
       <set comment="band 2">
        <r>  0.0000  0.0002  0.0003  0.0000  0.0000  0.0000  0.0000  0.0000  0.0000 </r>
        <r>  0.0000  0.0000  0.0000  0.0000  0.0976  0.5890  0.0653  0.1959  0.0285 </r>
       </set>
       <set comment="band 3">
        <r>  0.0000  0.0000  0.0000  0.0000  0.0000  0.0000  0.0000  0.0000  0.0000 </r>
        <r>  0.0000  0.0000  0.0000  0.0000  0.2914  0.0007  0.6809  0.0006  0.0046 </r>
       </set>
       <set comment="band 4">
        <r>  0.0000  0.0000  0.0000  0.0000  0.0000  0.0000  0.0000  0.0000  0.0000 </r>
        <r>  0.0000  0.0000  0.0000  0.0000  0.0351  0.0863  0.0055  0.3617  0.4900 </r>
       </set>
       <set comment="band 5">
        <r>  0.0000  0.0000  0.0000  0.0000  0.0000  0.0000  0.0000  0.0000  0.0000 </r>
        <r>  0.0000  0.0000  0.0000  0.0000  0.0312  0.1620  0.0033  0.3734  0.4103 </r>
       </set>
       <set comment="band 6">
        <r>  0.6675  0.0000  0.0000  0.0001  0.0000  0.0000  0.0000  0.0000  0.0000 </r>
        <r>  0.0029  0.0012  0.0019  0.0047  0.0067  0.0017  0.0025  0.0010  0.0009 </r>
       </set>
       <set comment="band 7">
        <r>  0.0041  0.0037  0.0052  0.0143  0.0014  0.0004  0.0005  0.0002  0.0002 </r>
        <r>  0.6476  0.0004  0.0000  0.0000  0.0000  0.0003  0.0000  0.0000  0.0000 </r>
       </set>
       <set comment="band 8">
        <r>  0.0037  0.1726  0.0600  0.0186  0.0007  0.0000  0.0001  0.0001  0.0002 </r>
        <r>  0.0011  0.0000  0.0318  0.0905  0.0003  0.0006  0.0020  0.0002  0.0001 </r>
       </set>
       <set comment="band 9">
        <r>  0.0003  0.0003  0.0755  0.1711  0.0002  0.0003  0.0009  0.0001  0.0001 </r>
        <r>  0.0114  0.0826  0.0313  0.0102  0.0018  0.0000  0.0003  0.0002  0.0004 </r>
       </set>
       <set comment="band 10">
        <r>  0.0008  0.1486  0.2251  0.0709  0.0006  0.0000  0.0004  0.0000  0.0001 </r>
        <r>  0.0724  0.0039  0.0029  0.0005  0.0017  0.0086  0.0017  0.0023  0.0009 </r>
       </set>
       <set comment="band 11">
        <r>  0.0445  0.0055  0.0032  0.0004  0.0016  0.0140  0.0025  0.0029  0.0016 </r>
        <r>  0.0012  0.1299  0.1978  0.0606  0.0000  0.0008  0.0000  0.0001  0.0001 </r>
       </set>
       <set comment="band 12">
        <r>  0.0043  0.1832  0.0799  0.0155  0.0176  0.0003  0.0101  0.0030  0.0021 </r>
        <r>  0.0005  0.0020  0.0606  0.1012  0.0047  0.0001  0.0014  0.0007  0.0019 </r>
       </set>
       <set comment="band 13">
        <r>  0.0013  0.0012  0.0437  0.2387  0.0003  0.0029  0.0202  0.0041  0.0054 </r>
        <r>  0.0082  0.1194  0.0214  0.0326  0.0001  0.0007  0.0055  0.0003  0.0003 </r>
       </set>
       <set comment="band 14">
        <r>  0.0017  0.0100  0.0296  0.0073  0.0116  0.0015  0.0224  0.0001  0.0048 </r>
        <r>  0.0016  0.0981  0.1030  0.0304  0.0085  0.0004  0.0305  0.0003  0.0003 </r>
       </set>
       <set comment="band 15">
        <r>  0.0049  0.0067  0.0010  0.0008  0.0001  0.0078  0.0020  0.0237  0.0267 </r>
        <r>  0.0018  0.0270  0.0011  0.1209  0.0048  0.0058  0.0008  0.0152  0.0187 </r>
       </set>
       <set comment="band 16">
        <r>  0.0102  0.0028  0.0022  0.0240  0.0350  0.0344  0.0249  0.0474  0.0101 </r>
        <r>  0.0454  0.0003  0.0008  0.0000  0.0004  0.0341  0.0000  0.0019  0.0038 </r>
       </set>
       <set comment="band 17">
        <r>  0.0023  0.0000  0.0001  0.0015  0.0002  0.0821  0.0000  0.0340  0.0700 </r>
        <r>  0.0088  0.0043  0.0230  0.0348  0.0014  0.0030  0.0006  0.0058  0.0009 </r>
       </set>
       <set comment="band 18">
        <r>  0.0409  0.0071  0.0014  0.0297  0.0399  0.0205  0.0223  0.0712  0.0083 </r>
        <r>  0.0043  0.0001  0.0003  0.0146  0.0456  0.0050  0.0167  0.0086  0.0006 </r>
       </set>
       <set comment="band 19">
        <r>  0.0005  0.0000  0.0080  0.0000  0.0753  0.0002  0.0105  0.0245  0.0008 </r>
        <r>  0.0321  0.0339  0.0051  0.0277  0.0025  0.0000  0.0020  0.0255  0.0187 </r>
       </set>
       <set comment="band 20">
        <r>  0.0001  0.0157  0.0079  0.0008  0.0165  0.0424  0.0074  0.0140  0.1071 </r>
        <r>  0.0014  0.0018  0.0017  0.0148  0.0006  0.0053  0.0000  0.0010  0.0021 </r>
       </set>
      </set>
      <set comment="kpoint 119">
       <set comment="band 1">
        <r>  0.0042  0.0000  0.0000  0.0000  0.0000  0.0000  0.0000  0.0000  0.0000 </r>
        <r>  0.0000  0.0000  0.0000  0.0000  0.5951  0.0619  0.2203  0.0248  0.0660 </r>
       </set>
       <set comment="band 2">
        <r>  0.0000  0.0002  0.0002  0.0001  0.0000  0.0000  0.0000  0.0000  0.0000 </r>
        <r>  0.0000  0.0000  0.0000  0.0000  0.0524  0.6254  0.0219  0.2620  0.0149 </r>
       </set>
       <set comment="band 3">
        <r>  0.0000  0.0000  0.0000  0.0000  0.0000  0.0000  0.0000  0.0000  0.0000 </r>
        <r>  0.0000  0.0000  0.0000  0.0000  0.2233  0.0001  0.7327  0.0003  0.0214 </r>
       </set>
       <set comment="band 4">
        <r>  0.0000  0.0000  0.0000  0.0000  0.0000  0.0000  0.0000  0.0000  0.0000 </r>
        <r>  0.0000  0.0000  0.0000  0.0000  0.0528  0.1263  0.0000  0.3649  0.4350 </r>
       </set>
       <set comment="band 5">
        <r>  0.0000  0.0000  0.0000  0.0000  0.0000  0.0000  0.0000  0.0000  0.0000 </r>
        <r>  0.0000  0.0000  0.0000  0.0000  0.0485  0.1632  0.0006  0.3265  0.4415 </r>
       </set>
       <set comment="band 6">
        <r>  0.6639  0.0000  0.0000  0.0001  0.0000  0.0000  0.0000  0.0000  0.0000 </r>
        <r>  0.0096  0.0010  0.0028  0.0021  0.0084  0.0011  0.0032  0.0006  0.0011 </r>
       </set>
       <set comment="band 7">
        <r>  0.0125  0.0033  0.0088  0.0066  0.0017  0.0003  0.0007  0.0001  0.0002 </r>
        <r>  0.6539  0.0003  0.0002  0.0000  0.0000  0.0003  0.0000  0.0001  0.0000 </r>
       </set>
       <set comment="band 8">
        <r>  0.0008  0.0847  0.0001  0.1536  0.0003  0.0001  0.0000  0.0002  0.0002 </r>
        <r>  0.0029  0.0415  0.0000  0.0831  0.0006  0.0002  0.0001  0.0005  0.0004 </r>
       </set>
       <set comment="band 9">
        <r>  0.0000  0.0862  0.1293  0.0431  0.0002  0.0000  0.0006  0.0000  0.0000 </r>
        <r>  0.0000  0.0418  0.0627  0.0209  0.0005  0.0000  0.0015  0.0000  0.0000 </r>
       </set>
       <set comment="band 10">
        <r>  0.0063  0.1300  0.1945  0.0645  0.0012  0.0003  0.0004  0.0001  0.0002 </r>
        <r>  0.0601  0.0189  0.0262  0.0074  0.0021  0.0057  0.0009  0.0021  0.0005 </r>
       </set>
       <set comment="band 11">
        <r>  0.0369  0.0266  0.0355  0.0091  0.0019  0.0127  0.0009  0.0041  0.0009 </r>
        <r>  0.0094  0.1184  0.1769  0.0586  0.0001  0.0029  0.0001  0.0009  0.0001 </r>
       </set>
       <set comment="band 12">
        <r>  0.0000  0.0629  0.0944  0.0315  0.0123  0.0000  0.0395  0.0000  0.0009 </r>
        <r>  0.0000  0.0195  0.0293  0.0098  0.0050  0.0000  0.0171  0.0000  0.0007 </r>
       </set>
       <set comment="band 13">
        <r>  0.0014  0.1030  0.0001  0.2255  0.0050  0.0027  0.0004  0.0095  0.0083 </r>
        <r>  0.0020  0.0743  0.0007  0.1162  0.0002  0.0003  0.0003  0.0010  0.0018 </r>
       </set>
       <set comment="band 14">
        <r>  0.0000  0.0414  0.0620  0.0207  0.0034  0.0001  0.0137  0.0001  0.0013 </r>
        <r>  0.0000  0.1049  0.1574  0.0525  0.0064  0.0000  0.0209  0.0000  0.0006 </r>
       </set>
       <set comment="band 15">
        <r>  0.0015  0.0080  0.0005  0.0074  0.0004  0.0082  0.0005  0.0201  0.0292 </r>
        <r>  0.0009  0.0511  0.0006  0.1300  0.0044  0.0063  0.0001  0.0147  0.0169 </r>
       </set>
       <set comment="band 16">
        <r>  0.0270  0.0000  0.0011  0.0026  0.0287  0.1123  0.0095  0.0402  0.0008 </r>
        <r>  0.0588  0.0008  0.0001  0.0029  0.0054  0.0420  0.0019  0.0189  0.0004 </r>
       </set>
       <set comment="band 17">
        <r>  0.0364  0.0007  0.0039  0.0209  0.1065  0.0119  0.0359  0.0195  0.0038 </r>
        <r>  0.0304  0.0000  0.0008  0.0022  0.0426  0.0022  0.0159  0.0010  0.0050 </r>
       </set>
       <set comment="band 18">
        <r>  0.0000  0.0008  0.0012  0.0004  0.0092  0.0459  0.0026  0.0918  0.1293 </r>
        <r>  0.0000  0.0084  0.0127  0.0042  0.0000  0.0001  0.0001  0.0001  0.0002 </r>
       </set>
       <set comment="band 19">
        <r>  0.0001  0.0055  0.0007  0.0036  0.0144  0.0012  0.0080  0.0143  0.0157 </r>
        <r>  0.0157  0.0224  0.0001  0.0504  0.0025  0.0028  0.0009  0.0019  0.0002 </r>
       </set>
       <set comment="band 20">
        <r>  0.0000  0.0067  0.0100  0.0033  0.0148  0.0165  0.0076  0.0330  0.0371 </r>
        <r>  0.0000  0.0100  0.0150  0.0050  0.0008  0.0035  0.0001  0.0071  0.0099 </r>
       </set>
      </set>
      <set comment="kpoint 120">
       <set comment="band 1">
        <r>  0.0041  0.0000  0.0000  0.0000  0.0000  0.0000  0.0000  0.0000  0.0000 </r>
        <r>  0.0000  0.0000  0.0000  0.0000  0.5060  0.1175  0.2229  0.0587  0.0632 </r>
       </set>
       <set comment="band 2">
        <r>  0.0000  0.0001  0.0003  0.0001  0.0000  0.0000  0.0000  0.0000  0.0000 </r>
        <r>  0.0000  0.0000  0.0000  0.0000  0.1028  0.5320  0.0629  0.2660  0.0128 </r>
       </set>
       <set comment="band 3">
        <r>  0.0000  0.0000  0.0000  0.0000  0.0000  0.0000  0.0000  0.0000  0.0000 </r>
        <r>  0.0000  0.0000  0.0000  0.0000  0.2554  0.0006  0.6900  0.0003  0.0319 </r>
       </set>
       <set comment="band 4">
        <r>  0.0000  0.0000  0.0000  0.0000  0.0000  0.0000  0.0000  0.0000  0.0000 </r>
        <r>  0.0000  0.0000  0.0000  0.0000  0.0590  0.1491  0.0000  0.2982  0.4721 </r>
       </set>
       <set comment="band 5">
        <r>  0.0000  0.0000  0.0000  0.0000  0.0000  0.0000  0.0000  0.0000  0.0000 </r>
        <r>  0.0000  0.0000  0.0000  0.0000  0.0498  0.1774  0.0000  0.3547  0.3984 </r>
       </set>
       <set comment="band 6">
        <r>  0.6744  0.0000  0.0000  0.0000  0.0000  0.0000  0.0000  0.0000  0.0000 </r>
        <r>  0.0005  0.0031  0.0019  0.0016  0.0077  0.0018  0.0028  0.0009  0.0010 </r>
       </set>
       <set comment="band 7">
        <r>  0.0006  0.0096  0.0053  0.0048  0.0016  0.0004  0.0006  0.0002  0.0002 </r>
        <r>  0.6604  0.0001  0.0000  0.0000  0.0000  0.0002  0.0001  0.0001  0.0000 </r>
       </set>
       <set comment="band 8">
        <r>  0.0000  0.0814  0.0000  0.1629  0.0001  0.0001  0.0000  0.0002  0.0005 </r>
        <r>  0.0000  0.0417  0.0000  0.0835  0.0001  0.0002  0.0000  0.0004  0.0011 </r>
       </set>
       <set comment="band 9">
        <r>  0.0009  0.0779  0.1340  0.0389  0.0000  0.0001  0.0009  0.0000  0.0000 </r>
        <r>  0.0027  0.0408  0.0632  0.0204  0.0002  0.0002  0.0019  0.0001  0.0000 </r>
       </set>
       <set comment="band 10">
        <r>  0.0014  0.1451  0.2240  0.0726  0.0007  0.0000  0.0005  0.0000  0.0001 </r>
        <r>  0.0712  0.0041  0.0047  0.0020  0.0021  0.0070  0.0018  0.0035  0.0003 </r>
       </set>
       <set comment="band 11">
        <r>  0.0441  0.0059  0.0062  0.0029  0.0022  0.0113  0.0025  0.0056  0.0003 </r>
        <r>  0.0021  0.1280  0.2003  0.0640  0.0000  0.0007  0.0000  0.0004  0.0000 </r>
       </set>
       <set comment="band 12">
        <r>  0.0007  0.0916  0.1194  0.0458  0.0082  0.0010  0.0308  0.0005  0.0010 </r>
        <r>  0.0014  0.0298  0.0732  0.0149  0.0040  0.0004  0.0071  0.0002  0.0005 </r>
       </set>
       <set comment="band 13">
        <r>  0.0000  0.0977  0.0000  0.1954  0.0024  0.0048  0.0000  0.0097  0.0190 </r>
        <r>  0.0000  0.0462  0.0000  0.0924  0.0004  0.0013  0.0000  0.0026  0.0032 </r>
       </set>
       <set comment="band 14">
        <r>  0.0023  0.0163  0.0362  0.0081  0.0116  0.0010  0.0210  0.0005  0.0015 </r>
        <r>  0.0013  0.0928  0.1120  0.0464  0.0069  0.0005  0.0300  0.0002  0.0009 </r>
       </set>
       <set comment="band 15">
        <r>  0.0000  0.0156  0.0000  0.0312  0.0019  0.0081  0.0000  0.0163  0.0153 </r>
        <r>  0.0000  0.0793  0.0000  0.1586  0.0023  0.0064  0.0000  0.0127  0.0184 </r>
       </set>
       <set comment="band 16">
        <r>  0.0052  0.0095  0.0000  0.0048  0.1118  0.0114  0.0660  0.0057  0.0140 </r>
        <r>  0.0893  0.0004  0.0000  0.0002  0.0181  0.0093  0.0087  0.0046  0.0023 </r>
       </set>
       <set comment="band 17">
        <r>  0.0615  0.0037  0.0028  0.0019  0.0048  0.1102  0.0008  0.0551  0.0006 </r>
        <r>  0.0071  0.0064  0.0017  0.0032  0.0364  0.0298  0.0136  0.0149  0.0046 </r>
       </set>
       <set comment="band 18">
        <r>  0.0000  0.0013  0.0000  0.0026  0.0078  0.0474  0.0000  0.0947  0.0624 </r>
        <r>  0.0000  0.0123  0.0000  0.0247  0.0002  0.0011  0.0000  0.0022  0.0017 </r>
       </set>
       <set comment="band 19">
        <r>  0.0004  0.0033  0.0121  0.0017  0.0324  0.0006  0.0006  0.0003  0.0041 </r>
        <r>  0.0081  0.0197  0.0323  0.0098  0.0021  0.0014  0.0003  0.0007  0.0003 </r>
       </set>
       <set comment="band 20">
        <r>  0.0000  0.0052  0.0000  0.0105  0.0150  0.0166  0.0000  0.0332  0.1195 </r>
        <r>  0.0000  0.0078  0.0000  0.0156  0.0004  0.0014  0.0000  0.0028  0.0029 </r>
       </set>
      </set>
     </set>
    </set>
   </array>
  </projected>
 </calculation>
 <structure name="finalpos" >
  <crystal>
   <varray name="basis" >
    <v>       4.02098700       0.00000000       2.32151800 </v>
    <v>       1.34032900       3.79102300       2.32151800 </v>
    <v>       0.00000000       0.00000000       4.64303600 </v>
   </varray>
   <i name="volume">     70.77683522 </i>
   <varray name="rec_basis" >
    <v>       0.24869516      -0.08792701       0.00000000 </v>
    <v>       0.00000000       0.26378104       0.00000000 </v>
    <v>      -0.12434758      -0.08792701       0.21537632 </v>
   </varray>
  </crystal>
  <varray name="positions" >
   <v>       0.00000000       0.00000000       0.00000000 </v>
   <v>       0.50000000       0.50000000       0.50000000 </v>
  </varray>
 </structure>
</modeling>
