<?xml version="1.0" encoding="ISO-8859-1"?>
<modeling>
 <generator>
  <i name="program" type="string">vasp </i>
  <i name="version" type="string">5.4.4.18Apr17-6-g9f103f2a35  </i>
  <i name="subversion" type="string">(build Feb 10 2018 14:21:16) complex            parallel </i>
  <i name="platform" type="string">IFC17.0.2.174_CrayMPICH7.6.2_MKL17.0.2.174 </i>
  <i name="date" type="string">2018 09 29 </i>
  <i name="time" type="string">06:42:44 </i>
 </generator>
 <incar>
  <i type="int" name="ISTART">     1</i>
  <i type="string" name="PREC">accurate</i>
  <i type="string" name="ALGO"> Normal</i>
  <i type="int" name="ISPIN">     1</i>
  <i type="int" name="ICHARG">    11</i>
  <i type="int" name="NELM">   100</i>
  <i type="int" name="IBRION">    -1</i>
  <i name="EDIFF">      0.00010000</i>
  <i type="int" name="NSW">     0</i>
  <i type="int" name="ISIF">     3</i>
  <i type="int" name="ISYM">     0</i>
  <i name="ENCUT">    520.00000000</i>
  <i type="int" name="NBANDS">    39</i>
  <i type="int" name="NEDOS">   601</i>
  <i type="string" name="LREAL"> Auto</i>
  <i type="int" name="ISMEAR">     0</i>
  <i name="SIGMA">      0.00100000</i>
  <i type="logical" name="LWAVE"> F  </i>
  <i type="logical" name="LCHARG"> F  </i>
  <i type="logical" name="LVHAR"> T  </i>
  <i type="int" name="LORBIT">    11</i>
  <i type="logical" name="LAECHG"> F  </i>
  <v type="int" name="KPOINT_BSE">    -1     0     0     0</v>
  <i type="int" name="NELM">   100</i>
 </incar>
 <structure name="primitive_cell" >
  <crystal>
   <varray name="basis" >
    <v>       3.52059400       0.00000000       2.03261700 </v>
    <v>       1.17353100       3.31924800       2.03261700 </v>
    <v>       0.00000000       0.00000000       4.06523200 </v>
   </varray>
   <i name="volume">     47.50518156 </i>
   <varray name="rec_basis" >
    <v>       0.28404298      -0.10042432       0.00000000 </v>
    <v>       0.00000000       0.30127306       0.00000000 </v>
    <v>      -0.14202156      -0.10042442       0.24598842 </v>
   </varray>
  </crystal>
  <varray name="positions" >
   <v>       0.00000000       0.00000000       0.00000000 </v>
   <v>       0.25000000       0.25000000       0.25000000 </v>
  </varray>
 </structure>
 <varray name="primitive_index" >
  <v type="int" >        1 </v>
  <v type="int" >        2 </v>
 </varray>
 <kpoints>
  <varray name="kpointlist" >
   <v>       0.00000000       0.00000000       0.00000000 </v>
   <v>       0.05882353       0.00000000       0.00000000 </v>
   <v>       0.11764706       0.00000000       0.00000000 </v>
   <v>       0.17647059       0.00000000       0.00000000 </v>
   <v>       0.23529412       0.00000000       0.00000000 </v>
   <v>       0.29411765       0.00000000       0.00000000 </v>
   <v>       0.35294118       0.00000000       0.00000000 </v>
   <v>       0.41176471       0.00000000       0.00000000 </v>
   <v>       0.47058824       0.00000000       0.00000000 </v>
   <v>       0.05882353       0.05882353       0.00000000 </v>
   <v>       0.11764706       0.05882353       0.00000000 </v>
   <v>       0.17647059       0.05882353       0.00000000 </v>
   <v>       0.23529412       0.05882353       0.00000000 </v>
   <v>       0.29411765       0.05882353       0.00000000 </v>
   <v>       0.35294118       0.05882353       0.00000000 </v>
   <v>       0.41176471       0.05882353       0.00000000 </v>
   <v>       0.47058824       0.05882353       0.00000000 </v>
   <v>      -0.47058824       0.05882353       0.00000000 </v>
   <v>      -0.41176471       0.05882353       0.00000000 </v>
   <v>      -0.35294118       0.05882353       0.00000000 </v>
   <v>      -0.29411765       0.05882353       0.00000000 </v>
   <v>      -0.23529412       0.05882353       0.00000000 </v>
   <v>      -0.17647059       0.05882353       0.00000000 </v>
   <v>      -0.11764706       0.05882353       0.00000000 </v>
   <v>      -0.05882353       0.05882353       0.00000000 </v>
   <v>       0.11764706       0.11764706       0.00000000 </v>
   <v>       0.17647059       0.11764706       0.00000000 </v>
   <v>       0.23529412       0.11764706       0.00000000 </v>
   <v>       0.29411765       0.11764706       0.00000000 </v>
   <v>       0.35294118       0.11764706       0.00000000 </v>
   <v>       0.41176471       0.11764706       0.00000000 </v>
   <v>       0.47058824       0.11764706       0.00000000 </v>
   <v>      -0.47058824       0.11764706       0.00000000 </v>
   <v>      -0.41176471       0.11764706       0.00000000 </v>
   <v>      -0.35294118       0.11764706       0.00000000 </v>
   <v>      -0.29411765       0.11764706       0.00000000 </v>
   <v>      -0.23529412       0.11764706       0.00000000 </v>
   <v>      -0.17647059       0.11764706       0.00000000 </v>
   <v>      -0.11764706       0.11764706       0.00000000 </v>
   <v>       0.17647059       0.17647059       0.00000000 </v>
   <v>       0.23529412       0.17647059       0.00000000 </v>
   <v>       0.29411765       0.17647059       0.00000000 </v>
   <v>       0.35294118       0.17647059       0.00000000 </v>
   <v>       0.41176471       0.17647059       0.00000000 </v>
   <v>       0.47058824       0.17647059       0.00000000 </v>
   <v>      -0.47058824       0.17647059       0.00000000 </v>
   <v>      -0.41176471       0.17647059       0.00000000 </v>
   <v>      -0.35294118       0.17647059       0.00000000 </v>
   <v>      -0.29411765       0.17647059       0.00000000 </v>
   <v>      -0.23529412       0.17647059       0.00000000 </v>
   <v>      -0.17647059       0.17647059       0.00000000 </v>
   <v>       0.23529412       0.23529412       0.00000000 </v>
   <v>       0.29411765       0.23529412       0.00000000 </v>
   <v>       0.35294118       0.23529412       0.00000000 </v>
   <v>       0.41176471       0.23529412       0.00000000 </v>
   <v>       0.47058824       0.23529412       0.00000000 </v>
   <v>      -0.47058824       0.23529412       0.00000000 </v>
   <v>      -0.41176471       0.23529412       0.00000000 </v>
   <v>      -0.35294118       0.23529412       0.00000000 </v>
   <v>      -0.29411765       0.23529412       0.00000000 </v>
   <v>      -0.23529412       0.23529412       0.00000000 </v>
   <v>       0.29411765       0.29411765       0.00000000 </v>
   <v>       0.35294118       0.29411765       0.00000000 </v>
   <v>       0.41176471       0.29411765       0.00000000 </v>
   <v>       0.47058824       0.29411765       0.00000000 </v>
   <v>      -0.47058824       0.29411765       0.00000000 </v>
   <v>      -0.41176471       0.29411765       0.00000000 </v>
   <v>      -0.35294118       0.29411765       0.00000000 </v>
   <v>      -0.29411765       0.29411765       0.00000000 </v>
   <v>       0.35294118       0.35294118       0.00000000 </v>
   <v>       0.41176471       0.35294118       0.00000000 </v>
   <v>       0.47058824       0.35294118       0.00000000 </v>
   <v>      -0.47058824       0.35294118       0.00000000 </v>
   <v>      -0.41176471       0.35294118       0.00000000 </v>
   <v>      -0.35294118       0.35294118       0.00000000 </v>
   <v>       0.41176471       0.41176471       0.00000000 </v>
   <v>       0.47058824       0.41176471       0.00000000 </v>
   <v>      -0.47058824       0.41176471       0.00000000 </v>
   <v>      -0.41176471       0.41176471       0.00000000 </v>
   <v>       0.47058824       0.47058824       0.00000000 </v>
   <v>      -0.47058824       0.47058824       0.00000000 </v>
   <v>       0.17647059       0.11764706       0.05882353 </v>
   <v>       0.23529412       0.11764706       0.05882353 </v>
   <v>       0.29411765       0.11764706       0.05882353 </v>
   <v>       0.35294118       0.11764706       0.05882353 </v>
   <v>       0.41176471       0.11764706       0.05882353 </v>
   <v>       0.47058824       0.11764706       0.05882353 </v>
   <v>      -0.47058824       0.11764706       0.05882353 </v>
   <v>       0.23529412       0.17647059       0.05882353 </v>
   <v>       0.29411765       0.17647059       0.05882353 </v>
   <v>       0.35294118       0.17647059       0.05882353 </v>
   <v>       0.41176471       0.17647059       0.05882353 </v>
   <v>       0.47058824       0.17647059       0.05882353 </v>
   <v>      -0.47058824       0.17647059       0.05882353 </v>
   <v>      -0.41176471       0.17647059       0.05882353 </v>
   <v>      -0.35294118       0.17647059       0.05882353 </v>
   <v>      -0.29411765       0.17647059       0.05882353 </v>
   <v>      -0.23529412       0.17647059       0.05882353 </v>
   <v>      -0.17647059       0.17647059       0.05882353 </v>
   <v>      -0.11764706       0.17647059       0.05882353 </v>
   <v>       0.29411765       0.23529412       0.05882353 </v>
   <v>       0.35294118       0.23529412       0.05882353 </v>
   <v>       0.41176471       0.23529412       0.05882353 </v>
   <v>       0.47058824       0.23529412       0.05882353 </v>
   <v>      -0.47058824       0.23529412       0.05882353 </v>
   <v>      -0.41176471       0.23529412       0.05882353 </v>
   <v>      -0.35294118       0.23529412       0.05882353 </v>
   <v>      -0.29411765       0.23529412       0.05882353 </v>
   <v>      -0.23529412       0.23529412       0.05882353 </v>
   <v>      -0.17647059       0.23529412       0.05882353 </v>
   <v>       0.35294118       0.29411765       0.05882353 </v>
   <v>       0.41176471       0.29411765       0.05882353 </v>
   <v>       0.47058824       0.29411765       0.05882353 </v>
   <v>      -0.47058824       0.29411765       0.05882353 </v>
   <v>      -0.41176471       0.29411765       0.05882353 </v>
   <v>      -0.35294118       0.29411765       0.05882353 </v>
   <v>      -0.29411765       0.29411765       0.05882353 </v>
   <v>      -0.23529412       0.29411765       0.05882353 </v>
   <v>       0.41176471       0.35294118       0.05882353 </v>
   <v>       0.47058824       0.35294118       0.05882353 </v>
   <v>      -0.47058824       0.35294118       0.05882353 </v>
   <v>      -0.41176471       0.35294118       0.05882353 </v>
   <v>      -0.35294118       0.35294118       0.05882353 </v>
   <v>      -0.29411765       0.35294118       0.05882353 </v>
   <v>       0.47058824       0.41176471       0.05882353 </v>
   <v>      -0.47058824       0.41176471       0.05882353 </v>
   <v>      -0.41176471       0.41176471       0.05882353 </v>
   <v>      -0.35294118       0.41176471       0.05882353 </v>
   <v>      -0.47058824       0.47058824       0.05882353 </v>
   <v>      -0.41176471       0.47058824       0.05882353 </v>
   <v>       0.35294118       0.23529412       0.11764706 </v>
   <v>       0.41176471       0.23529412       0.11764706 </v>
   <v>       0.47058824       0.23529412       0.11764706 </v>
   <v>      -0.47058824       0.23529412       0.11764706 </v>
   <v>      -0.41176471       0.23529412       0.11764706 </v>
   <v>       0.41176471       0.29411765       0.11764706 </v>
   <v>       0.47058824       0.29411765       0.11764706 </v>
   <v>      -0.47058824       0.29411765       0.11764706 </v>
   <v>      -0.41176471       0.29411765       0.11764706 </v>
   <v>      -0.35294118       0.29411765       0.11764706 </v>
   <v>      -0.29411765       0.29411765       0.11764706 </v>
   <v>      -0.23529412       0.29411765       0.11764706 </v>
   <v>      -0.17647059       0.29411765       0.11764706 </v>
   <v>       0.47058824       0.35294118       0.11764706 </v>
   <v>      -0.47058824       0.35294118       0.11764706 </v>
   <v>      -0.41176471       0.35294118       0.11764706 </v>
   <v>      -0.35294118       0.35294118       0.11764706 </v>
   <v>      -0.29411765       0.35294118       0.11764706 </v>
   <v>      -0.23529412       0.35294118       0.11764706 </v>
   <v>      -0.47058824       0.41176471       0.11764706 </v>
   <v>      -0.41176471       0.41176471       0.11764706 </v>
   <v>      -0.35294118       0.41176471       0.11764706 </v>
   <v>      -0.29411765       0.41176471       0.11764706 </v>
   <v>      -0.41176471       0.47058824       0.11764706 </v>
   <v>      -0.35294118       0.47058824       0.11764706 </v>
   <v>      -0.47058824       0.35294118       0.17647059 </v>
   <v>      -0.41176471       0.35294118       0.17647059 </v>
   <v>      -0.35294118       0.35294118       0.17647059 </v>
   <v>      -0.41176471       0.41176471       0.17647059 </v>
   <v>      -0.35294118       0.41176471       0.17647059 </v>
   <v>      -0.29411765       0.41176471       0.17647059 </v>
   <v>      -0.23529412       0.41176471       0.17647059 </v>
   <v>      -0.35294118       0.47058824       0.17647059 </v>
   <v>      -0.29411765       0.47058824       0.17647059 </v>
   <v>      -0.29411765       0.47058824       0.23529412 </v>
  </varray>
  <varray name="weights" >
   <v>       0.00020354 </v>
   <v>       0.00162833 </v>
   <v>       0.00162833 </v>
   <v>       0.00162833 </v>
   <v>       0.00162833 </v>
   <v>       0.00162833 </v>
   <v>       0.00162833 </v>
   <v>       0.00162833 </v>
   <v>       0.00162833 </v>
   <v>       0.00122125 </v>
   <v>       0.00488500 </v>
   <v>       0.00488500 </v>
   <v>       0.00488500 </v>
   <v>       0.00488500 </v>
   <v>       0.00488500 </v>
   <v>       0.00488500 </v>
   <v>       0.00488500 </v>
   <v>       0.00488500 </v>
   <v>       0.00488500 </v>
   <v>       0.00488500 </v>
   <v>       0.00488500 </v>
   <v>       0.00488500 </v>
   <v>       0.00488500 </v>
   <v>       0.00488500 </v>
   <v>       0.00244250 </v>
   <v>       0.00122125 </v>
   <v>       0.00488500 </v>
   <v>       0.00488500 </v>
   <v>       0.00488500 </v>
   <v>       0.00488500 </v>
   <v>       0.00488500 </v>
   <v>       0.00488500 </v>
   <v>       0.00488500 </v>
   <v>       0.00488500 </v>
   <v>       0.00488500 </v>
   <v>       0.00488500 </v>
   <v>       0.00488500 </v>
   <v>       0.00488500 </v>
   <v>       0.00244250 </v>
   <v>       0.00122125 </v>
   <v>       0.00488500 </v>
   <v>       0.00488500 </v>
   <v>       0.00488500 </v>
   <v>       0.00488500 </v>
   <v>       0.00488500 </v>
   <v>       0.00488500 </v>
   <v>       0.00488500 </v>
   <v>       0.00488500 </v>
   <v>       0.00488500 </v>
   <v>       0.00488500 </v>
   <v>       0.00244250 </v>
   <v>       0.00122125 </v>
   <v>       0.00488500 </v>
   <v>       0.00488500 </v>
   <v>       0.00488500 </v>
   <v>       0.00488500 </v>
   <v>       0.00488500 </v>
   <v>       0.00488500 </v>
   <v>       0.00488500 </v>
   <v>       0.00488500 </v>
   <v>       0.00244250 </v>
   <v>       0.00122125 </v>
   <v>       0.00488500 </v>
   <v>       0.00488500 </v>
   <v>       0.00488500 </v>
   <v>       0.00488500 </v>
   <v>       0.00488500 </v>
   <v>       0.00488500 </v>
   <v>       0.00244250 </v>
   <v>       0.00122125 </v>
   <v>       0.00488500 </v>
   <v>       0.00488500 </v>
   <v>       0.00488500 </v>
   <v>       0.00488500 </v>
   <v>       0.00244250 </v>
   <v>       0.00122125 </v>
   <v>       0.00488500 </v>
   <v>       0.00488500 </v>
   <v>       0.00244250 </v>
   <v>       0.00122125 </v>
   <v>       0.00244250 </v>
   <v>       0.00488500 </v>
   <v>       0.00977000 </v>
   <v>       0.00977000 </v>
   <v>       0.00977000 </v>
   <v>       0.00977000 </v>
   <v>       0.00977000 </v>
   <v>       0.00977000 </v>
   <v>       0.00488500 </v>
   <v>       0.00977000 </v>
   <v>       0.00977000 </v>
   <v>       0.00977000 </v>
   <v>       0.00977000 </v>
   <v>       0.00977000 </v>
   <v>       0.00977000 </v>
   <v>       0.00977000 </v>
   <v>       0.00977000 </v>
   <v>       0.00977000 </v>
   <v>       0.00977000 </v>
   <v>       0.00488500 </v>
   <v>       0.00488500 </v>
   <v>       0.00977000 </v>
   <v>       0.00977000 </v>
   <v>       0.00977000 </v>
   <v>       0.00977000 </v>
   <v>       0.00977000 </v>
   <v>       0.00977000 </v>
   <v>       0.00977000 </v>
   <v>       0.00977000 </v>
   <v>       0.00488500 </v>
   <v>       0.00488500 </v>
   <v>       0.00977000 </v>
   <v>       0.00977000 </v>
   <v>       0.00977000 </v>
   <v>       0.00977000 </v>
   <v>       0.00977000 </v>
   <v>       0.00977000 </v>
   <v>       0.00488500 </v>
   <v>       0.00488500 </v>
   <v>       0.00977000 </v>
   <v>       0.00977000 </v>
   <v>       0.00977000 </v>
   <v>       0.00977000 </v>
   <v>       0.00488500 </v>
   <v>       0.00488500 </v>
   <v>       0.00977000 </v>
   <v>       0.00977000 </v>
   <v>       0.00488500 </v>
   <v>       0.00488500 </v>
   <v>       0.00488500 </v>
   <v>       0.00488500 </v>
   <v>       0.00977000 </v>
   <v>       0.00977000 </v>
   <v>       0.00977000 </v>
   <v>       0.00977000 </v>
   <v>       0.00488500 </v>
   <v>       0.00977000 </v>
   <v>       0.00977000 </v>
   <v>       0.00977000 </v>
   <v>       0.00977000 </v>
   <v>       0.00977000 </v>
   <v>       0.00977000 </v>
   <v>       0.00488500 </v>
   <v>       0.00488500 </v>
   <v>       0.00977000 </v>
   <v>       0.00977000 </v>
   <v>       0.00977000 </v>
   <v>       0.00977000 </v>
   <v>       0.00488500 </v>
   <v>       0.00488500 </v>
   <v>       0.00977000 </v>
   <v>       0.00977000 </v>
   <v>       0.00488500 </v>
   <v>       0.00488500 </v>
   <v>       0.00488500 </v>
   <v>       0.00488500 </v>
   <v>       0.00977000 </v>
   <v>       0.00977000 </v>
   <v>       0.00488500 </v>
   <v>       0.00977000 </v>
   <v>       0.00977000 </v>
   <v>       0.00488500 </v>
   <v>       0.00488500 </v>
   <v>       0.00488500 </v>
   <v>       0.00488500 </v>
  </varray>
 </kpoints>
 <parameters>
  <separator name="general" >
   <i type="string" name="SYSTEM">unknown system</i>
   <i type="logical" name="LCOMPAT"> F  </i>
  </separator>
  <separator name="electronic" >
   <i type="string" name="PREC">accura</i>
   <i name="ENMAX">    520.00000000</i>
   <i name="ENAUG">    490.69000000</i>
   <i name="EDIFF">      0.00010000</i>
   <i type="int" name="IALGO">    38</i>
   <i type="int" name="IWAVPR">    10</i>
   <i type="int" name="NBANDS">    64</i>
   <i name="NELECT">     18.00000000</i>
   <i type="int" name="TURBO">     0</i>
   <i type="int" name="IRESTART">     0</i>
   <i type="int" name="NREBOOT">     0</i>
   <i type="int" name="NMIN">     0</i>
   <i name="EREF">      0.00000000</i>
   <separator name="electronic smearing" >
    <i type="int" name="ISMEAR">     0</i>
    <i name="SIGMA">      0.00100000</i>
    <i name="KSPACING">      0.50000000</i>
    <i type="logical" name="KGAMMA"> T  </i>
   </separator>
   <separator name="electronic projectors" >
    <i type="logical" name="LREAL"> T  </i>
    <v name="ROPT">     -0.00025000     -0.00025000</v>
    <i type="int" name="LMAXPAW">  -100</i>
    <i type="int" name="LMAXMIX">     2</i>
    <i type="logical" name="NLSPLINE"> F  </i>
   </separator>
   <separator name="electronic startup" >
    <i type="int" name="ISTART">     0</i>
    <i type="int" name="ICHARG">    11</i>
    <i type="int" name="INIWAV">     1</i>
   </separator>
   <separator name="electronic spin" >
    <i type="int" name="ISPIN">     1</i>
    <i type="logical" name="LNONCOLLINEAR"> F  </i>
    <v name="MAGMOM">      1.00000000      1.00000000</v>
    <i name="NUPDOWN">     -1.00000000</i>
    <i type="logical" name="LSORBIT"> F  </i>
    <v name="SAXIS">      0.00000000      0.00000000      1.00000000</v>
    <i type="logical" name="LSPIRAL"> F  </i>
    <v name="QSPIRAL">      0.00000000      0.00000000      0.00000000</v>
    <i type="logical" name="LZEROZ"> F  </i>
   </separator>
   <separator name="electronic exchange-correlation" >
    <i type="logical" name="LASPH"> F  </i>
    <i type="logical" name="LMETAGGA"> F  </i>
   </separator>
   <separator name="electronic convergence" >
    <i type="int" name="NELM">   100</i>
    <i type="int" name="NELMDL">     0</i>
    <i type="int" name="NELMIN">     2</i>
    <i name="ENINI">    520.00000000</i>
    <separator name="electronic convergence detail" >
     <i type="logical" name="LDIAG"> T  </i>
     <i type="logical" name="LSUBROT"> F  </i>
     <i name="WEIMIN">      0.00000000</i>
     <i name="EBREAK">      0.00000039</i>
     <i name="DEPER">      0.30000000</i>
     <i type="int" name="NRMM">     4</i>
     <i name="TIME">      0.40000000</i>
    </separator>
   </separator>
   <separator name="electronic mixer" >
    <i name="AMIX">      0.40000000</i>
    <i name="BMIX">      1.00000000</i>
    <i name="AMIN">      0.10000000</i>
    <i name="AMIX_MAG">      1.60000000</i>
    <i name="BMIX_MAG">      1.00000000</i>
    <separator name="electronic mixer details" >
     <i type="int" name="IMIX">     4</i>
     <i type="logical" name="MIXFIRST"> F  </i>
     <i type="int" name="MAXMIX">   -45</i>
     <i name="WC">    100.00000000</i>
     <i type="int" name="INIMIX">     1</i>
     <i type="int" name="MIXPRE">     1</i>
     <i type="int" name="MREMOVE">     5</i>
    </separator>
   </separator>
   <separator name="electronic dipolcorrection" >
    <i type="logical" name="LDIPOL"> F  </i>
    <i type="logical" name="LMONO"> F  </i>
    <i type="int" name="IDIPOL">     0</i>
    <i name="EPSILON">      1.00000000</i>
    <v name="DIPOL">   -100.00000000   -100.00000000   -100.00000000</v>
    <i name="EFIELD">      0.00000000</i>
   </separator>
  </separator>
  <separator name="grids" >
   <i type="int" name="NGX">    30</i>
   <i type="int" name="NGY">    30</i>
   <i type="int" name="NGZ">    30</i>
   <i type="int" name="NGXF">    60</i>
   <i type="int" name="NGYF">    60</i>
   <i type="int" name="NGZF">    60</i>
   <i type="logical" name="ADDGRID"> F  </i>
  </separator>
  <separator name="ionic" >
   <i type="int" name="NSW">     0</i>
   <i type="int" name="IBRION">    -1</i>
   <i type="int" name="MDALGO">     0</i>
   <i type="int" name="ISIF">     3</i>
   <i name="PSTRESS">      0.00000000</i>
   <i name="EDIFFG">      0.00100000</i>
   <i type="int" name="NFREE">     0</i>
   <i name="POTIM">      0.50000000</i>
   <i name="SMASS">     -3.00000000</i>
   <i name="SCALEE">      1.00000000</i>
  </separator>
  <separator name="ionic md" >
   <i name="TEBEG">      0.00010000</i>
   <i name="TEEND">      0.00010000</i>
   <i type="int" name="NBLOCK">     1</i>
   <i type="int" name="KBLOCK">     1</i>
   <i type="int" name="NPACO">   256</i>
   <i name="APACO">     16.00000000</i>
  </separator>
  <separator name="symmetry" >
   <i type="int" name="ISYM">     0</i>
   <i name="SYMPREC">      0.00001000</i>
  </separator>
  <separator name="dos" >
   <i type="int" name="LORBIT">    11</i>
   <v name="RWIGS">     -1.00000000     -1.00000000</v>
   <i type="int" name="NEDOS">   601</i>
   <i name="EMIN">     10.00000000</i>
   <i name="EMAX">    -10.00000000</i>
   <i name="EFERMI">      0.00000000</i>
  </separator>
  <separator name="writing" >
   <i type="int" name="NWRITE">     2</i>
   <i type="logical" name="LWAVE"> F  </i>
   <i type="logical" name="LDOWNSAMPLE"> F  </i>
   <i type="logical" name="LCHARG"> F  </i>
   <i type="logical" name="LPARD"> F  </i>
   <i type="logical" name="LVTOT"> F  </i>
   <i type="logical" name="LVHAR"> T  </i>
   <i type="logical" name="LELF"> F  </i>
   <i type="logical" name="LOPTICS"> F  </i>
   <v name="STM">      0.00000000      0.00000000      0.00000000      0.00000000      0.00000000      0.00000000      0.00000000</v>
  </separator>
  <separator name="performance" >
   <i type="int" name="NPAR">    32</i>
   <i type="int" name="NSIM">     4</i>
   <i type="int" name="NBLK">    -1</i>
   <i type="logical" name="LPLANE"> T  </i>
   <i type="logical" name="LSCALAPACK"> T  </i>
   <i type="logical" name="LSCAAWARE"> T  </i>
   <i type="logical" name="LSCALU"> F  </i>
   <i type="logical" name="LASYNC"> F  </i>
   <i type="logical" name="LORBITALREAL"> F  </i>
  </separator>
  <separator name="miscellaneous" >
   <i type="int" name="IDIOT">     3</i>
   <i type="int" name="ISPECIAL">     0</i>
   <i type="logical" name="LMUSIC"> F  </i>
   <v name="POMASS">     69.72300000     74.92200000</v>
   <v name="DARWINR">      0.00000000      0.00000000</v>
   <v name="DARWINV">      1.00000000      1.00000000</v>
   <i type="logical" name="LCORR"> T  </i>
  </separator>
  <i type="logical" name="GGA_COMPAT"> T  </i>
  <i type="logical" name="LBERRY"> F  </i>
  <i type="int" name="ICORELEVEL">     0</i>
  <i type="logical" name="LDAU"> F  </i>
  <i type="int" name="I_CONSTRAINED_M">     0</i>
  <separator name="electronic exchange-correlation" >
   <i type="string" name="GGA">--</i>
   <i type="int" name="VOSKOWN">     0</i>
   <i type="logical" name="LHFCALC"> F  </i>
   <i type="string" name="PRECFOCK"></i>
   <i type="logical" name="LSYMGRAD"> F  </i>
   <i type="logical" name="LHFONE"> F  </i>
   <i type="logical" name="LRHFCALC"> F  </i>
   <i type="logical" name="LTHOMAS"> F  </i>
   <i type="logical" name="LMODELHF"> F  </i>
   <i name="ENCUT4O">     -1.00000000</i>
   <i type="int" name="EXXOEP">     0</i>
   <i type="int" name="FOURORBIT">     0</i>
   <i name="AEXX">      0.00000000</i>
   <i name="HFALPHA">      0.00000000</i>
   <i name="MCALPHA">      0.00000000</i>
   <i name="ALDAX">      1.00000000</i>
   <i name="AGGAX">      1.00000000</i>
   <i name="ALDAC">      1.00000000</i>
   <i name="AGGAC">      1.00000000</i>
   <i type="int" name="NKREDX">     1</i>
   <i type="int" name="NKREDY">     1</i>
   <i type="int" name="NKREDZ">     1</i>
   <i type="logical" name="SHIFTRED"> F  </i>
   <i type="logical" name="ODDONLY"> F  </i>
   <i type="logical" name="EVENONLY"> F  </i>
   <i type="int" name="LMAXFOCK">     0</i>
   <i type="int" name="NMAXFOCKAE">     0</i>
   <i type="logical" name="LFOCKAEDFT"> F  </i>
   <i name="HFSCREEN">      0.00000000</i>
   <i name="HFSCREENC">      0.00000000</i>
   <i type="int" name="NBANDSGWLOW">     0</i>
  </separator>
  <separator name="vdW DFT" >
   <i type="logical" name="LUSE_VDW"> F  </i>
   <i name="Zab_VDW">     -0.84910000</i>
   <i name="PARAM1">      0.12340000</i>
   <i name="PARAM2">      1.00000000</i>
   <i name="PARAM3">      0.00000000</i>
  </separator>
  <separator name="model GW" >
   <i type="int" name="MODEL_GW">     0</i>
   <i name="MODEL_EPS0">     14.25155447</i>
   <i name="MODEL_ALPHA">      1.00000000</i>
  </separator>
  <separator name="linear response parameters" >
   <i type="logical" name="LEPSILON"> F  </i>
   <i type="logical" name="LRPA"> F  </i>
   <i type="logical" name="LNABLA"> F  </i>
   <i type="logical" name="LVEL"> F  </i>
   <i type="int" name="KINTER">     0</i>
   <i name="CSHIFT">      0.10000000</i>
   <i name="OMEGAMAX">     -1.00000000</i>
   <i name="DEG_THRESHOLD">      0.00200000</i>
   <i name="RTIME">     -0.10000000</i>
   <i name="WPLASMAI">      0.00000000</i>
   <v name="DFIELD">      0.00000000      0.00000000      0.00000000</v>
   <v name="WPLASMA">      0.00000000      0.00000000      0.00000000      0.00000000      0.00000000      0.00000000      0.00000000      0.00000000      0.00000000</v>
  </separator>
  <separator name="orbital magnetization" >
   <i type="logical" name="NUCIND"> F  </i>
   <v name="MAGPOS">      0.00000000      0.00000000      0.00000000</v>
   <i type="logical" name="LNICSALL"> T  </i>
   <i type="logical" name="ORBITALMAG"> F  </i>
   <i type="logical" name="LMAGBLOCH"> F  </i>
   <i type="logical" name="LCHIMAG"> F  </i>
   <i type="logical" name="LGAUGE"> T  </i>
   <i type="int" name="MAGATOM">     0</i>
   <v name="MAGDIPOL">      0.00000000      0.00000000      0.00000000</v>
   <v name="AVECCONST">      0.00000000      0.00000000      0.00000000</v>
  </separator>
  <separator name="response functions" >
   <i type="logical" name="LADDER"> F  </i>
   <i type="logical" name="LRPAFORCE"> F  </i>
   <i type="logical" name="LFXC"> F  </i>
   <i type="logical" name="LHARTREE"> T  </i>
   <i type="int" name="IBSE">     0</i>
   <v type="int" name="KPOINT">    -1     0     0     0</v>
   <i type="logical" name="LTCTE"> F  </i>
   <i type="logical" name="LTETE"> F  </i>
   <i type="logical" name="LTRIPLET"> F  </i>
   <i type="logical" name="LFXCEPS"> F  </i>
   <i type="logical" name="LFXHEG"> F  </i>
   <i type="int" name="NATURALO">     2</i>
   <i type="logical" name="L2ORDER"> F  </i>
   <i type="logical" name="LMP2LT"> F  </i>
   <i type="logical" name="LUSEW"> F  </i>
   <i name="ENCUTGW">     -2.00000000</i>
   <i name="ENCUTGWSOFT">     -2.00000000</i>
   <i name="ENCUTLF">     -1.00000000</i>
   <i type="int" name="LMAXMP2">    -1</i>
   <i name="SCISSOR">      0.00000000</i>
   <i type="int" name="NOMEGA">     0</i>
   <i type="int" name="NOMEGAR">     0</i>
   <i type="int" name="NBANDSGW">    -1</i>
   <i type="int" name="NBANDSO">    -1</i>
   <i type="int" name="NBANDSV">    -1</i>
   <i type="int" name="NELM">   100</i>
   <i type="int" name="NELMHF">     1</i>
   <i type="int" name="DIM">     3</i>
   <i type="int" name="ANTIRES">     0</i>
   <i name="OMEGAMAX">    -30.00000000</i>
   <i name="OMEGAMIN">    -30.00000000</i>
   <i name="OMEGATL">   -200.00000000</i>
   <i type="int" name="OMEGAGRID">   140</i>
   <i name="CSHIFT">     -0.10000000</i>
   <i type="logical" name="SELFENERGY"> F  </i>
   <i type="logical" name="LSPECTRAL"> F  </i>
   <i type="logical" name="LSPECTRALGW"> F  </i>
   <i type="logical" name="LSINGLES"> F  </i>
   <i type="logical" name="LFERMIGW"> F  </i>
   <i type="logical" name="ODDONLYGW"> F  </i>
   <i type="logical" name="EVENONLYGW"> F  </i>
   <i type="int" name="NKREDLFX">     1</i>
   <i type="int" name="NKREDLFY">     1</i>
   <i type="int" name="NKREDLFZ">     1</i>
   <i type="int" name="MAXMEM">  2800</i>
   <i type="int" name="TELESCOPE">     0</i>
   <i type="int" name="TAUPAR">     1</i>
   <i type="int" name="OMEGAPAR">    -1</i>
   <i name="LAMBDA">      1.00000000</i>
  </separator>
  <separator name="External order field" >
   <i name="OFIELD_KAPPA">      0.00000000</i>
   <v name="OFIELD_K">      0.00000000      0.00000000      0.00000000</v>
   <i name="OFIELD_Q6_NEAR">      0.00000000</i>
   <i name="OFIELD_Q6_FAR">      0.00000000</i>
   <i name="OFIELD_A">      0.00000000</i>
  </separator>
 </parameters>
 <atominfo>
  <atoms>       2 </atoms>
  <types>       2 </types>
  <array name="atoms" >
   <dimension dim="1">ion</dimension>
   <field type="string">element</field>
   <field type="int">atomtype</field>
   <set>
    <rc><c>Ga</c><c>   1</c></rc>
    <rc><c>As</c><c>   2</c></rc>
   </set>
  </array>
  <array name="atomtypes" >
   <dimension dim="1">type</dimension>
   <field type="int">atomspertype</field>
   <field type="string">element</field>
   <field>mass</field>
   <field>valence</field>
   <field type="string">pseudopotential</field>
   <set>
    <rc><c>   1</c><c>Ga</c><c>     69.72300000</c><c>     13.00000000</c><c> PAW_PBE Ga_d 06Sep2000                 </c></rc>
    <rc><c>   1</c><c>As</c><c>     74.92200000</c><c>      5.00000000</c><c> PAW_PBE As 06Sep2000                   </c></rc>
   </set>
  </array>
 </atominfo>
 <structure name="initialpos" >
  <crystal>
   <varray name="basis" >
    <v>       3.52059400       0.00000000       2.03261700 </v>
    <v>       1.17353100       3.31924800       2.03261700 </v>
    <v>       0.00000000       0.00000000       4.06523200 </v>
   </varray>
   <i name="volume">     47.50518156 </i>
   <varray name="rec_basis" >
    <v>       0.28404298      -0.10042432       0.00000000 </v>
    <v>       0.00000000       0.30127306       0.00000000 </v>
    <v>      -0.14202156      -0.10042442       0.24598842 </v>
   </varray>
  </crystal>
  <varray name="positions" >
   <v>       0.00000000       0.00000000       0.00000000 </v>
   <v>       0.25000000       0.25000000       0.25000000 </v>
  </varray>
 </structure>
 <calculation>
  <scstep>
   <time name="dav">   15.45   15.45</time>
   <time name="total">   15.50   15.53</time>
   <energy>
    <i name="alphaZ">     71.89011148 </i>
    <i name="ewald">  -1244.47898267 </i>
    <i name="hartreedc">   -732.37323219 </i>
    <i name="XCdc">     51.00969134 </i>
    <i name="pawpsdc">   1542.26115913 </i>
    <i name="pawaedc">  -1875.83183873 </i>
    <i name="eentropy">     -0.00000458 </i>
    <i name="bandstr">    -47.79055027 </i>
    <i name="atom">   2319.13379706 </i>
    <i name="e_fr_energy">     83.82015056 </i>
    <i name="e_wo_entrp">     83.82015514 </i>
    <i name="e_0_energy">     83.82015285 </i>
   </energy>
  </scstep>
  <scstep>
   <time name="dav">   19.59   19.61</time>
   <time name="total">   19.59   19.62</time>
   <energy>
    <i name="e_fr_energy">     -3.86985676 </i>
    <i name="e_wo_entrp">     -3.86985676 </i>
    <i name="e_0_energy">     -3.86985676 </i>
   </energy>
  </scstep>
  <scstep>
   <time name="dav">   18.28   18.30</time>
   <time name="total">   18.29   18.31</time>
   <energy>
    <i name="e_fr_energy">     -8.37747909 </i>
    <i name="e_wo_entrp">     -8.37747909 </i>
    <i name="e_0_energy">     -8.37747909 </i>
   </energy>
  </scstep>
  <scstep>
   <time name="dav">   22.46   22.47</time>
   <time name="total">   22.46   22.48</time>
   <energy>
    <i name="e_fr_energy">     -8.39101031 </i>
    <i name="e_wo_entrp">     -8.39101031 </i>
    <i name="e_0_energy">     -8.39101031 </i>
   </energy>
  </scstep>
  <scstep>
   <time name="dav">   18.26   18.28</time>
   <time name="total">   18.27   18.29</time>
   <energy>
    <i name="e_fr_energy">     -8.39101773 </i>
    <i name="e_wo_entrp">     -8.39101773 </i>
    <i name="e_0_energy">     -8.39101773 </i>
   </energy>
  </scstep>
  <scstep>
   <time name="dav">   19.02   19.04</time>
   <time name="total">   19.03   19.04</time>
   <energy>
    <i name="alphaZ">     71.89011148 </i>
    <i name="ewald">  -1244.47898267 </i>
    <i name="hartreedc">   -732.37323219 </i>
    <i name="XCdc">     51.00969134 </i>
    <i name="pawpsdc">   1542.26115913 </i>
    <i name="pawaedc">  -1875.83183873 </i>
    <i name="eentropy">      0.00000000 </i>
    <i name="bandstr">   -140.00172315 </i>
    <i name="atom">   2319.13379706 </i>
    <i name="e_fr_energy">     -8.39101774 </i>
    <i name="e_wo_entrp">     -8.39101774 </i>
    <i name="e_0_energy">     -8.39101774 </i>
   </energy>
  </scstep>
  <structure>
   <crystal>
    <varray name="basis" >
     <v>       3.52059400       0.00000000       2.03261700 </v>
     <v>       1.17353100       3.31924800       2.03261700 </v>
     <v>       0.00000000       0.00000000       4.06523200 </v>
    </varray>
    <i name="volume">     47.50518156 </i>
    <varray name="rec_basis" >
     <v>       0.28404298      -0.10042432       0.00000000 </v>
     <v>       0.00000000       0.30127306       0.00000000 </v>
     <v>      -0.14202156      -0.10042442       0.24598842 </v>
    </varray>
   </crystal>
   <varray name="positions" >
    <v>       0.00000000       0.00000000       0.00000000 </v>
    <v>       0.25000000       0.25000000       0.25000000 </v>
   </varray>
  </structure>
  <varray name="forces" >
   <v>      -0.43011533       0.08308646      -0.18737652 </v>
   <v>       0.43011533      -0.08308646       0.18737652 </v>
  </varray>
  <varray name="stress" >
   <v>     -72.82941827      53.61537694      -6.35004720 </v>
   <v>      53.61537715     -10.53235363      41.40244206 </v>
   <v>      -6.35004740      41.40244205      89.73585981 </v>
  </varray>
  <energy>
   <i name="e_fr_energy">     -8.39101774 </i>
   <i name="e_wo_entrp">     -8.39101774 </i>
   <i name="e_0_energy">      0.00000000 </i>
  </energy>
  <time name="totalsc">  124.98  125.99</time>
  <eigenvalues>
   <array>
    <dimension dim="1">band</dimension>
    <dimension dim="2">kpoint</dimension>
    <dimension dim="3">spin</dimension>
    <field>eigene</field>
    <field>occ</field>
    <set>
     <set comment="spin 1">
      <set comment="kpoint 1">
       <r>  -12.0752    1.0000 </r>
       <r>  -12.0752    1.0000 </r>
       <r>  -12.0752    1.0000 </r>
       <r>  -12.0066    1.0000 </r>
       <r>  -12.0065    1.0000 </r>
       <r>   -9.6834    1.0000 </r>
       <r>    2.6744    1.0000 </r>
       <r>    2.6744    1.0000 </r>
       <r>    2.6744    1.0000 </r>
       <r>    2.8643    0.0000 </r>
       <r>    6.3863    0.0000 </r>
       <r>    6.3863    0.0000 </r>
       <r>    6.3863    0.0000 </r>
       <r>   10.1223    0.0000 </r>
       <r>   12.6559    0.0000 </r>
       <r>   12.6559    0.0000 </r>
       <r>   14.1001    0.0000 </r>
       <r>   14.1001    0.0000 </r>
       <r>   14.1001    0.0000 </r>
       <r>   16.9949    0.0000 </r>
       <r>   27.2189    0.0000 </r>
       <r>   27.2189    0.0000 </r>
       <r>   27.2189    0.0000 </r>
       <r>   28.2154    0.0000 </r>
       <r>   28.2154    0.0000 </r>
       <r>   28.2154    0.0000 </r>
       <r>   28.9969    0.0000 </r>
       <r>   28.9969    0.0000 </r>
       <r>   28.9969    0.0000 </r>
       <r>   29.4745    0.0000 </r>
       <r>   29.4745    0.0000 </r>
       <r>   36.5217    0.0000 </r>
       <r>   40.4260    0.0000 </r>
       <r>   40.4260    0.0000 </r>
       <r>   40.6434    0.0000 </r>
       <r>   40.6434    0.0000 </r>
       <r>   40.6434    0.0000 </r>
       <r>   41.4673    0.0000 </r>
       <r>   41.9466    0.0000 </r>
       <r>   41.9466    0.0000 </r>
       <r>   41.9466    0.0000 </r>
       <r>   42.3034    0.0000 </r>
       <r>   42.3034    0.0000 </r>
       <r>   42.3034    0.0000 </r>
       <r>   43.1480    0.0000 </r>
       <r>   43.1480    0.0000 </r>
       <r>   43.1480    0.0000 </r>
       <r>   43.8514    0.0000 </r>
       <r>   43.8514    0.0000 </r>
       <r>   43.8514    0.0000 </r>
       <r>   44.7047    0.0000 </r>
       <r>   44.7047    0.0000 </r>
       <r>   44.7047    0.0000 </r>
       <r>   45.9071    0.0000 </r>
       <r>   45.9071    0.0000 </r>
       <r>   47.6760    0.0000 </r>
       <r>   50.3064    0.0000 </r>
       <r>   50.3064    0.0000 </r>
       <r>   50.3064    0.0000 </r>
       <r>   50.7784    0.0000 </r>
       <r>   50.7784    0.0000 </r>
       <r>   50.7784    0.0000 </r>
       <r>   52.4884    0.0000 </r>
       <r>   55.2955    0.0000 </r>
      </set>
      <set comment="kpoint 2">
       <r>  -12.0776    1.0000 </r>
       <r>  -12.0745    1.0000 </r>
       <r>  -12.0745    1.0000 </r>
       <r>  -12.0066    1.0000 </r>
       <r>  -12.0066    1.0000 </r>
       <r>   -9.6454    1.0000 </r>
       <r>    1.8189    1.0000 </r>
       <r>    2.6205    1.0000 </r>
       <r>    2.6205    1.0000 </r>
       <r>    3.5599    0.0000 </r>
       <r>    6.4380    0.0000 </r>
       <r>    6.4676    0.0000 </r>
       <r>    6.4677    0.0000 </r>
       <r>   10.3548    0.0000 </r>
       <r>   12.3558    0.0000 </r>
       <r>   12.3558    0.0000 </r>
       <r>   13.8841    0.0000 </r>
       <r>   14.5478    0.0000 </r>
       <r>   14.5478    0.0000 </r>
       <r>   17.3594    0.0000 </r>
       <r>   26.0879    0.0000 </r>
       <r>   26.3620    0.0000 </r>
       <r>   26.3620    0.0000 </r>
       <r>   27.9684    0.0000 </r>
       <r>   27.9684    0.0000 </r>
       <r>   28.8544    0.0000 </r>
       <r>   28.8544    0.0000 </r>
       <r>   29.0319    0.0000 </r>
       <r>   29.1972    0.0000 </r>
       <r>   30.8519    0.0000 </r>
       <r>   30.8519    0.0000 </r>
       <r>   36.6491    0.0000 </r>
       <r>   39.2851    0.0000 </r>
       <r>   39.2851    0.0000 </r>
       <r>   39.3096    0.0000 </r>
       <r>   40.2691    0.0000 </r>
       <r>   40.2691    0.0000 </r>
       <r>   40.9164    0.0000 </r>
       <r>   41.5770    0.0000 </r>
       <r>   41.5770    0.0000 </r>
       <r>   42.0718    0.0000 </r>
       <r>   42.2496    0.0000 </r>
       <r>   42.6532    0.0000 </r>
       <r>   42.6532    0.0000 </r>
       <r>   43.0773    0.0000 </r>
       <r>   43.0773    0.0000 </r>
       <r>   43.4781    0.0000 </r>
       <r>   43.9052    0.0000 </r>
       <r>   43.9052    0.0000 </r>
       <r>   44.1378    0.0000 </r>
       <r>   45.3635    0.0000 </r>
       <r>   45.3635    0.0000 </r>
       <r>   45.7066    0.0000 </r>
       <r>   47.0320    0.0000 </r>
       <r>   47.0320    0.0000 </r>
       <r>   47.3871    0.0000 </r>
       <r>   48.8164    0.0000 </r>
       <r>   49.6492    0.0000 </r>
       <r>   49.6492    0.0000 </r>
       <r>   51.6819    0.0000 </r>
       <r>   51.6820    0.0000 </r>
       <r>   51.6846    0.0000 </r>
       <r>   53.6841    0.0000 </r>
       <r>   55.7977    0.0000 </r>
      </set>
      <set comment="kpoint 3">
       <r>  -12.0843    1.0000 </r>
       <r>  -12.0726    1.0000 </r>
       <r>  -12.0725    1.0000 </r>
       <r>  -12.0067    1.0000 </r>
       <r>  -12.0067    1.0000 </r>
       <r>   -9.5332    1.0000 </r>
       <r>    0.8200    1.0000 </r>
       <r>    2.4782    1.0000 </r>
       <r>    2.4782    1.0000 </r>
       <r>    4.0232    0.0000 </r>
       <r>    6.6802    0.0000 </r>
       <r>    6.6802    0.0000 </r>
       <r>    6.7164    0.0000 </r>
       <r>   10.9408    0.0000 </r>
       <r>   11.9029    0.0000 </r>
       <r>   11.9029    0.0000 </r>
       <r>   13.4932    0.0000 </r>
       <r>   15.4552    0.0000 </r>
       <r>   15.4552    0.0000 </r>
       <r>   18.2367    0.0000 </r>
       <r>   24.5203    0.0000 </r>
       <r>   24.7104    0.0000 </r>
       <r>   24.7104    0.0000 </r>
       <r>   28.0107    0.0000 </r>
       <r>   28.0107    0.0000 </r>
       <r>   28.9196    0.0000 </r>
       <r>   28.9196    0.0000 </r>
       <r>   29.1356    0.0000 </r>
       <r>   30.3075    0.0000 </r>
       <r>   32.7628    0.0000 </r>
       <r>   32.7628    0.0000 </r>
       <r>   36.4243    0.0000 </r>
       <r>   37.5083    0.0000 </r>
       <r>   37.5083    0.0000 </r>
       <r>   37.9275    0.0000 </r>
       <r>   39.2878    0.0000 </r>
       <r>   39.2878    0.0000 </r>
       <r>   40.2815    0.0000 </r>
       <r>   40.3841    0.0000 </r>
       <r>   40.3841    0.0000 </r>
       <r>   40.9551    0.0000 </r>
       <r>   42.1074    0.0000 </r>
       <r>   42.4525    0.0000 </r>
       <r>   42.4525    0.0000 </r>
       <r>   43.3836    0.0000 </r>
       <r>   43.5740    0.0000 </r>
       <r>   43.5740    0.0000 </r>
       <r>   45.0468    0.0000 </r>
       <r>   45.0468    0.0000 </r>
       <r>   45.2988    0.0000 </r>
       <r>   46.2120    0.0000 </r>
       <r>   46.3778    0.0000 </r>
       <r>   46.3778    0.0000 </r>
       <r>   47.3133    0.0000 </r>
       <r>   48.7330    0.0000 </r>
       <r>   48.7330    0.0000 </r>
       <r>   49.1383    0.0000 </r>
       <r>   49.6230    0.0000 </r>
       <r>   49.6230    0.0000 </r>
       <r>   52.1371    0.0000 </r>
       <r>   52.9649    0.0000 </r>
       <r>   52.9649    0.0000 </r>
       <r>   55.3385    0.0000 </r>
       <r>   57.6410    0.0000 </r>
      </set>
      <set comment="kpoint 4">
       <r>  -12.0942    1.0000 </r>
       <r>  -12.0697    1.0000 </r>
       <r>  -12.0697    1.0000 </r>
       <r>  -12.0066    1.0000 </r>
       <r>  -12.0066    1.0000 </r>
       <r>   -9.3516    1.0000 </r>
       <r>   -0.1778    1.0000 </r>
       <r>    2.2887    1.0000 </r>
       <r>    2.2887    1.0000 </r>
       <r>    4.1218    0.0000 </r>
       <r>    6.9452    0.0000 </r>
       <r>    6.9452    0.0000 </r>
       <r>    7.3322    0.0000 </r>
       <r>   11.5149    0.0000 </r>
       <r>   11.6061    0.0000 </r>
       <r>   11.6061    0.0000 </r>
       <r>   13.4000    0.0000 </r>
       <r>   16.5476    0.0000 </r>
       <r>   16.5476    0.0000 </r>
       <r>   19.3794    0.0000 </r>
       <r>   22.9428    0.0000 </r>
       <r>   23.0118    0.0000 </r>
       <r>   23.0118    0.0000 </r>
       <r>   28.1783    0.0000 </r>
       <r>   28.1783    0.0000 </r>
       <r>   29.0513    0.0000 </r>
       <r>   29.0513    0.0000 </r>
       <r>   29.3032    0.0000 </r>
       <r>   31.0909    0.0000 </r>
       <r>   34.4116    0.0000 </r>
       <r>   34.4116    0.0000 </r>
       <r>   34.6794    0.0000 </r>
       <r>   35.8927    0.0000 </r>
       <r>   35.8927    0.0000 </r>
       <r>   38.1477    0.0000 </r>
       <r>   38.2743    0.0000 </r>
       <r>   38.2743    0.0000 </r>
       <r>   39.1625    0.0000 </r>
       <r>   39.1625    0.0000 </r>
       <r>   39.5693    0.0000 </r>
       <r>   39.7193    0.0000 </r>
       <r>   41.7821    0.0000 </r>
       <r>   42.2594    0.0000 </r>
       <r>   42.2594    0.0000 </r>
       <r>   42.9384    0.0000 </r>
       <r>   43.8961    0.0000 </r>
       <r>   43.8961    0.0000 </r>
       <r>   44.2049    0.0000 </r>
       <r>   46.4707    0.0000 </r>
       <r>   46.4707    0.0000 </r>
       <r>   47.3171    0.0000 </r>
       <r>   47.3171    0.0000 </r>
       <r>   47.7067    0.0000 </r>
       <r>   49.0741    0.0000 </r>
       <r>   49.1769    0.0000 </r>
       <r>   49.1769    0.0000 </r>
       <r>   50.0516    0.0000 </r>
       <r>   51.8454    0.0000 </r>
       <r>   51.8454    0.0000 </r>
       <r>   53.0006    0.0000 </r>
       <r>   54.4317    0.0000 </r>
       <r>   54.4317    0.0000 </r>
       <r>   56.6426    0.0000 </r>
       <r>   59.7852    0.0000 </r>
      </set>
      <set comment="kpoint 5">
       <r>  -12.1056    1.0000 </r>
       <r>  -12.0665    1.0000 </r>
       <r>  -12.0665    1.0000 </r>
       <r>  -12.0064    1.0000 </r>
       <r>  -12.0064    1.0000 </r>
       <r>   -9.1101    1.0000 </r>
       <r>   -1.1319    1.0000 </r>
       <r>    2.0905    1.0000 </r>
       <r>    2.0905    1.0000 </r>
       <r>    4.0197    0.0000 </r>
       <r>    7.1710    0.0000 </r>
       <r>    7.1710    0.0000 </r>
       <r>    8.1716    0.0000 </r>
       <r>   11.5741    0.0000 </r>
       <r>   11.5741    0.0000 </r>
       <r>   11.5825    0.0000 </r>
       <r>   14.0711    0.0000 </r>
       <r>   17.7590    0.0000 </r>
       <r>   17.7590    0.0000 </r>
       <r>   20.6067    0.0000 </r>
       <r>   21.3792    0.0000 </r>
       <r>   21.3792    0.0000 </r>
       <r>   21.5281    0.0000 </r>
       <r>   28.4145    0.0000 </r>
       <r>   28.4145    0.0000 </r>
       <r>   29.2195    0.0000 </r>
       <r>   29.2195    0.0000 </r>
       <r>   29.5253    0.0000 </r>
       <r>   31.1310    0.0000 </r>
       <r>   33.1671    0.0000 </r>
       <r>   33.2572    0.0000 </r>
       <r>   33.2572    0.0000 </r>
       <r>   36.6204    0.0000 </r>
       <r>   36.6204    0.0000 </r>
       <r>   37.5012    0.0000 </r>
       <r>   37.5012    0.0000 </r>
       <r>   37.6755    0.0000 </r>
       <r>   38.3970    0.0000 </r>
       <r>   38.3970    0.0000 </r>
       <r>   38.5948    0.0000 </r>
       <r>   38.8899    0.0000 </r>
       <r>   41.5743    0.0000 </r>
       <r>   42.1370    0.0000 </r>
       <r>   42.1370    0.0000 </r>
       <r>   42.4841    0.0000 </r>
       <r>   43.9479    0.0000 </r>
       <r>   43.9479    0.0000 </r>
       <r>   44.1973    0.0000 </r>
       <r>   47.5958    0.0000 </r>
       <r>   47.5958    0.0000 </r>
       <r>   48.2590    0.0000 </r>
       <r>   48.2590    0.0000 </r>
       <r>   48.8337    0.0000 </r>
       <r>   50.3933    0.0000 </r>
       <r>   50.3933    0.0000 </r>
       <r>   50.9451    0.0000 </r>
       <r>   51.2606    0.0000 </r>
       <r>   54.3120    0.0000 </r>
       <r>   54.3120    0.0000 </r>
       <r>   54.3547    0.0000 </r>
       <r>   56.1097    0.0000 </r>
       <r>   56.1098    0.0000 </r>
       <r>   57.9292    0.0000 </r>
       <r>   58.1658    0.0000 </r>
      </set>
      <set comment="kpoint 6">
       <r>  -12.1169    1.0000 </r>
       <r>  -12.0636    1.0000 </r>
       <r>  -12.0636    1.0000 </r>
       <r>  -12.0058    1.0000 </r>
       <r>  -12.0058    1.0000 </r>
       <r>   -8.8249    1.0000 </r>
       <r>   -2.0057    1.0000 </r>
       <r>    1.9105    1.0000 </r>
       <r>    1.9105    1.0000 </r>
       <r>    3.8642    0.0000 </r>
       <r>    7.2968    0.0000 </r>
       <r>    7.2968    0.0000 </r>
       <r>    9.0937    0.0000 </r>
       <r>   11.3936    0.0000 </r>
       <r>   11.8553    0.0000 </r>
       <r>   11.8553    0.0000 </r>
       <r>   15.1483    0.0000 </r>
       <r>   18.9567    0.0000 </r>
       <r>   18.9567    0.0000 </r>
       <r>   19.9513    0.0000 </r>
       <r>   19.9513    0.0000 </r>
       <r>   20.0266    0.0000 </r>
       <r>   22.2592    0.0000 </r>
       <r>   28.6896    0.0000 </r>
       <r>   28.6897    0.0000 </r>
       <r>   29.3632    0.0000 </r>
       <r>   29.3632    0.0000 </r>
       <r>   29.6748    0.0000 </r>
       <r>   29.7849    0.0000 </r>
       <r>   31.3992    0.0000 </r>
       <r>   31.3992    0.0000 </r>
       <r>   32.9562    0.0000 </r>
       <r>   36.1042    0.0000 </r>
       <r>   36.1886    0.0000 </r>
       <r>   36.1886    0.0000 </r>
       <r>   36.8252    0.0000 </r>
       <r>   36.8252    0.0000 </r>
       <r>   37.6084    0.0000 </r>
       <r>   38.1597    0.0000 </r>
       <r>   39.7711    0.0000 </r>
       <r>   39.7712    0.0000 </r>
       <r>   41.4173    0.0000 </r>
       <r>   42.1081    0.0000 </r>
       <r>   42.1081    0.0000 </r>
       <r>   43.2876    0.0000 </r>
       <r>   43.7871    0.0000 </r>
       <r>   43.7872    0.0000 </r>
       <r>   44.4776    0.0000 </r>
       <r>   48.2000    0.0000 </r>
       <r>   48.2000    0.0000 </r>
       <r>   49.6498    0.0000 </r>
       <r>   49.8409    0.0000 </r>
       <r>   49.8409    0.0000 </r>
       <r>   51.9959    0.0000 </r>
       <r>   51.9959    0.0000 </r>
       <r>   52.5746    0.0000 </r>
       <r>   52.9139    0.0000 </r>
       <r>   55.8158    0.0000 </r>
       <r>   56.2119    0.0000 </r>
       <r>   56.2119    0.0000 </r>
       <r>   56.8985    0.0000 </r>
       <r>   56.8985    0.0000 </r>
       <r>   57.5326    0.0000 </r>
       <r>   57.8049    0.0000 </r>
      </set>
      <set comment="kpoint 7">
       <r>  -12.1267    1.0000 </r>
       <r>  -12.0612    1.0000 </r>
       <r>  -12.0612    1.0000 </r>
       <r>  -12.0049    1.0000 </r>
       <r>  -12.0049    1.0000 </r>
       <r>   -8.5241    1.0000 </r>
       <r>   -2.7574    1.0000 </r>
       <r>    1.7652    1.0000 </r>
       <r>    1.7652    1.0000 </r>
       <r>    3.7215    0.0000 </r>
       <r>    7.3271    0.0000 </r>
       <r>    7.3271    0.0000 </r>
       <r>    9.9277    0.0000 </r>
       <r>   11.3482    0.0000 </r>
       <r>   12.4292    0.0000 </r>
       <r>   12.4292    0.0000 </r>
       <r>   15.9113    0.0000 </r>
       <r>   18.2264    0.0000 </r>
       <r>   18.2264    0.0000 </r>
       <r>   19.3617    0.0000 </r>
       <r>   20.6470    0.0000 </r>
       <r>   20.6470    0.0000 </r>
       <r>   23.7944    0.0000 </r>
       <r>   27.7586    0.0000 </r>
       <r>   28.7988    0.0000 </r>
       <r>   28.7988    0.0000 </r>
       <r>   29.1006    0.0000 </r>
       <r>   29.1006    0.0000 </r>
       <r>   30.0540    0.0000 </r>
       <r>   30.1465    0.0000 </r>
       <r>   30.1465    0.0000 </r>
       <r>   32.7751    0.0000 </r>
       <r>   34.6228    0.0000 </r>
       <r>   35.4716    0.0000 </r>
       <r>   35.4716    0.0000 </r>
       <r>   36.0804    0.0000 </r>
       <r>   36.0804    0.0000 </r>
       <r>   36.7924    0.0000 </r>
       <r>   37.4427    0.0000 </r>
       <r>   41.1932    0.0000 </r>
       <r>   41.5645    0.0000 </r>
       <r>   41.5645    0.0000 </r>
       <r>   42.4063    0.0000 </r>
       <r>   42.4063    0.0000 </r>
       <r>   43.6024    0.0000 </r>
       <r>   43.6024    0.0000 </r>
       <r>   44.0853    0.0000 </r>
       <r>   45.4841    0.0000 </r>
       <r>   48.9200    0.0000 </r>
       <r>   48.9201    0.0000 </r>
       <r>   50.4183    0.0000 </r>
       <r>   51.5116    0.0000 </r>
       <r>   51.5116    0.0000 </r>
       <r>   53.3299    0.0000 </r>
       <r>   53.3299    0.0000 </r>
       <r>   53.4009    0.0000 </r>
       <r>   54.9731    0.0000 </r>
       <r>   55.4073    0.0000 </r>
       <r>   55.4073    0.0000 </r>
       <r>   55.7497    0.0000 </r>
       <r>   55.7497    0.0000 </r>
       <r>   55.8765    0.0000 </r>
       <r>   58.2236    0.0000 </r>
       <r>   58.9432    0.0000 </r>
      </set>
      <set comment="kpoint 8">
       <r>  -12.1339    1.0000 </r>
       <r>  -12.0596    1.0000 </r>
       <r>  -12.0596    1.0000 </r>
       <r>  -12.0041    1.0000 </r>
       <r>  -12.0041    1.0000 </r>
       <r>   -8.2557    1.0000 </r>
       <r>   -3.3307    1.0000 </r>
       <r>    1.6640    1.0000 </r>
       <r>    1.6640    1.0000 </r>
       <r>    3.6181    0.0000 </r>
       <r>    7.3092    0.0000 </r>
       <r>    7.3092    0.0000 </r>
       <r>   10.3204    0.0000 </r>
       <r>   11.8229    0.0000 </r>
       <r>   13.2224    0.0000 </r>
       <r>   13.2224    0.0000 </r>
       <r>   15.6141    0.0000 </r>
       <r>   16.9046    0.0000 </r>
       <r>   16.9046    0.0000 </r>
       <r>   19.9669    0.0000 </r>
       <r>   22.1435    0.0000 </r>
       <r>   22.1435    0.0000 </r>
       <r>   25.0075    0.0000 </r>
       <r>   26.3069    0.0000 </r>
       <r>   27.2687    0.0000 </r>
       <r>   27.2687    0.0000 </r>
       <r>   29.2649    0.0000 </r>
       <r>   29.2649    0.0000 </r>
       <r>   30.1070    0.0000 </r>
       <r>   30.1070    0.0000 </r>
       <r>   30.2879    0.0000 </r>
       <r>   31.3513    0.0000 </r>
       <r>   34.3857    0.0000 </r>
       <r>   34.9038    0.0000 </r>
       <r>   34.9039    0.0000 </r>
       <r>   35.5263    0.0000 </r>
       <r>   35.5263    0.0000 </r>
       <r>   36.1930    0.0000 </r>
       <r>   36.8233    0.0000 </r>
       <r>   41.0346    0.0000 </r>
       <r>   41.9838    0.0000 </r>
       <r>   41.9838    0.0000 </r>
       <r>   43.0028    0.0000 </r>
       <r>   43.0028    0.0000 </r>
       <r>   44.2701    0.0000 </r>
       <r>   44.6229    0.0000 </r>
       <r>   44.6229    0.0000 </r>
       <r>   47.2682    0.0000 </r>
       <r>   49.6895    0.0000 </r>
       <r>   49.6896    0.0000 </r>
       <r>   51.1659    0.0000 </r>
       <r>   52.2781    0.0000 </r>
       <r>   52.2781    0.0000 </r>
       <r>   52.7182    0.0000 </r>
       <r>   53.3029    0.0000 </r>
       <r>   53.3029    0.0000 </r>
       <r>   54.0467    0.0000 </r>
       <r>   54.0467    0.0000 </r>
       <r>   56.1428    0.0000 </r>
       <r>   56.4686    0.0000 </r>
       <r>   56.4686    0.0000 </r>
       <r>   57.1118    0.0000 </r>
       <r>   58.1181    0.0000 </r>
       <r>   59.9868    0.0000 </r>
      </set>
      <set comment="kpoint 9">
       <r>  -12.1377    1.0000 </r>
       <r>  -12.0588    1.0000 </r>
       <r>  -12.0588    1.0000 </r>
       <r>  -12.0035    1.0000 </r>
       <r>  -12.0035    1.0000 </r>
       <r>   -8.0898    1.0000 </r>
       <r>   -3.6503    1.0000 </r>
       <r>    1.6123    1.0000 </r>
       <r>    1.6123    1.0000 </r>
       <r>    3.5646    0.0000 </r>
       <r>    7.2886    0.0000 </r>
       <r>    7.2886    0.0000 </r>
       <r>   10.3684    0.0000 </r>
       <r>   12.5602    0.0000 </r>
       <r>   14.0798    0.0000 </r>
       <r>   14.0798    0.0000 </r>
       <r>   14.8651    0.0000 </r>
       <r>   15.7855    0.0000 </r>
       <r>   15.7855    0.0000 </r>
       <r>   21.2140    0.0000 </r>
       <r>   23.7181    0.0000 </r>
       <r>   23.7181    0.0000 </r>
       <r>   23.8790    0.0000 </r>
       <r>   25.5589    0.0000 </r>
       <r>   25.5589    0.0000 </r>
       <r>   27.5449    0.0000 </r>
       <r>   29.4120    0.0000 </r>
       <r>   29.4120    0.0000 </r>
       <r>   29.4858    0.0000 </r>
       <r>   30.1970    0.0000 </r>
       <r>   30.1971    0.0000 </r>
       <r>   30.4286    0.0000 </r>
       <r>   34.5756    0.0000 </r>
       <r>   34.5852    0.0000 </r>
       <r>   34.5852    0.0000 </r>
       <r>   35.2303    0.0000 </r>
       <r>   35.2303    0.0000 </r>
       <r>   35.8694    0.0000 </r>
       <r>   36.4142    0.0000 </r>
       <r>   40.9548    0.0000 </r>
       <r>   42.0842    0.0000 </r>
       <r>   42.0843    0.0000 </r>
       <r>   42.8876    0.0000 </r>
       <r>   42.8876    0.0000 </r>
       <r>   44.3220    0.0000 </r>
       <r>   46.5666    0.0000 </r>
       <r>   46.5666    0.0000 </r>
       <r>   49.1680    0.0000 </r>
       <r>   49.6478    0.0000 </r>
       <r>   49.6478    0.0000 </r>
       <r>   50.9249    0.0000 </r>
       <r>   51.4532    0.0000 </r>
       <r>   51.4532    0.0000 </r>
       <r>   51.9978    0.0000 </r>
       <r>   52.5763    0.0000 </r>
       <r>   52.5763    0.0000 </r>
       <r>   54.9095    0.0000 </r>
       <r>   54.9095    0.0000 </r>
       <r>   56.1463    0.0000 </r>
       <r>   57.8913    0.0000 </r>
       <r>   57.9693    0.0000 </r>
       <r>   57.9693    0.0000 </r>
       <r>   58.9803    0.0000 </r>
       <r>   58.9805    0.0000 </r>
      </set>
      <set comment="kpoint 10">
       <r>  -12.0792    1.0000 </r>
       <r>  -12.0739    1.0000 </r>
       <r>  -12.0739    1.0000 </r>
       <r>  -12.0071    1.0000 </r>
       <r>  -12.0062    1.0000 </r>
       <r>   -9.6328    1.0000 </r>
       <r>    1.7499    1.0000 </r>
       <r>    2.5130    1.0000 </r>
       <r>    2.5130    1.0000 </r>
       <r>    3.7778    0.0000 </r>
       <r>    6.2045    0.0000 </r>
       <r>    6.6123    0.0000 </r>
       <r>    6.6123    0.0000 </r>
       <r>   10.4268    0.0000 </r>
       <r>   11.9104    0.0000 </r>
       <r>   12.7103    0.0000 </r>
       <r>   14.2145    0.0000 </r>
       <r>   14.2145    0.0000 </r>
       <r>   14.6314    0.0000 </r>
       <r>   17.5158    0.0000 </r>
       <r>   25.9444    0.0000 </r>
       <r>   25.9444    0.0000 </r>
       <r>   26.5775    0.0000 </r>
       <r>   27.3688    0.0000 </r>
       <r>   28.1202    0.0000 </r>
       <r>   28.3403    0.0000 </r>
       <r>   28.3403    0.0000 </r>
       <r>   30.0548    0.0000 </r>
       <r>   30.2804    0.0000 </r>
       <r>   30.2804    0.0000 </r>
       <r>   31.1907    0.0000 </r>
       <r>   36.6805    0.0000 </r>
       <r>   38.6401    0.0000 </r>
       <r>   39.2331    0.0000 </r>
       <r>   39.2331    0.0000 </r>
       <r>   39.9962    0.0000 </r>
       <r>   40.2170    0.0000 </r>
       <r>   41.0641    0.0000 </r>
       <r>   41.0641    0.0000 </r>
       <r>   41.4883    0.0000 </r>
       <r>   41.9620    0.0000 </r>
       <r>   42.3491    0.0000 </r>
       <r>   42.3491    0.0000 </r>
       <r>   42.8146    0.0000 </r>
       <r>   43.1392    0.0000 </r>
       <r>   43.3492    0.0000 </r>
       <r>   43.3492    0.0000 </r>
       <r>   43.8489    0.0000 </r>
       <r>   44.4679    0.0000 </r>
       <r>   44.4679    0.0000 </r>
       <r>   44.6722    0.0000 </r>
       <r>   46.3667    0.0000 </r>
       <r>   46.3667    0.0000 </r>
       <r>   46.4241    0.0000 </r>
       <r>   46.9435    0.0000 </r>
       <r>   48.1492    0.0000 </r>
       <r>   48.6594    0.0000 </r>
       <r>   48.6594    0.0000 </r>
       <r>   49.9833    0.0000 </r>
       <r>   50.6031    0.0000 </r>
       <r>   52.6988    0.0000 </r>
       <r>   52.6988    0.0000 </r>
       <r>   53.6289    0.0000 </r>
       <r>   55.8747    0.0000 </r>
      </set>
      <set comment="kpoint 11">
       <r>  -12.0847    1.0000 </r>
       <r>  -12.0723    1.0000 </r>
       <r>  -12.0720    1.0000 </r>
       <r>  -12.0076    1.0000 </r>
       <r>  -12.0059    1.0000 </r>
       <r>   -9.5453    1.0000 </r>
       <r>    1.0036    1.0000 </r>
       <r>    2.3327    1.0000 </r>
       <r>    2.3970    1.0000 </r>
       <r>    4.2390    0.0000 </r>
       <r>    6.1466    0.0000 </r>
       <r>    6.8774    0.0000 </r>
       <r>    6.9058    0.0000 </r>
       <r>   10.8803    0.0000 </r>
       <r>   11.4070    0.0000 </r>
       <r>   12.5016    0.0000 </r>
       <r>   13.9457    0.0000 </r>
       <r>   14.7466    0.0000 </r>
       <r>   15.4077    0.0000 </r>
       <r>   18.2666    0.0000 </r>
       <r>   24.5561    0.0000 </r>
       <r>   24.6016    0.0000 </r>
       <r>   26.0044    0.0000 </r>
       <r>   26.9770    0.0000 </r>
       <r>   27.2006    0.0000 </r>
       <r>   28.4456    0.0000 </r>
       <r>   29.2408    0.0000 </r>
       <r>   30.4605    0.0000 </r>
       <r>   30.6773    0.0000 </r>
       <r>   31.7929    0.0000 </r>
       <r>   32.7917    0.0000 </r>
       <r>   36.5167    0.0000 </r>
       <r>   37.3462    0.0000 </r>
       <r>   38.0191    0.0000 </r>
       <r>   38.0627    0.0000 </r>
       <r>   38.9391    0.0000 </r>
       <r>   39.2753    0.0000 </r>
       <r>   40.1008    0.0000 </r>
       <r>   40.7584    0.0000 </r>
       <r>   40.8368    0.0000 </r>
       <r>   41.5439    0.0000 </r>
       <r>   41.6088    0.0000 </r>
       <r>   42.1804    0.0000 </r>
       <r>   42.9492    0.0000 </r>
       <r>   43.0135    0.0000 </r>
       <r>   43.9397    0.0000 </r>
       <r>   44.1964    0.0000 </r>
       <r>   44.4224    0.0000 </r>
       <r>   44.7991    0.0000 </r>
       <r>   45.4866    0.0000 </r>
       <r>   45.7347    0.0000 </r>
       <r>   46.2602    0.0000 </r>
       <r>   47.2973    0.0000 </r>
       <r>   47.4851    0.0000 </r>
       <r>   47.7159    0.0000 </r>
       <r>   48.1685    0.0000 </r>
       <r>   48.4104    0.0000 </r>
       <r>   49.5378    0.0000 </r>
       <r>   50.3071    0.0000 </r>
       <r>   51.1807    0.0000 </r>
       <r>   53.0641    0.0000 </r>
       <r>   53.9096    0.0000 </r>
       <r>   55.3403    0.0000 </r>
       <r>   57.0441    0.0000 </r>
      </set>
      <set comment="kpoint 12">
       <r>  -12.0934    1.0000 </r>
       <r>  -12.0700    1.0000 </r>
       <r>  -12.0691    1.0000 </r>
       <r>  -12.0080    1.0000 </r>
       <r>  -12.0055    1.0000 </r>
       <r>   -9.3867    1.0000 </r>
       <r>    0.0781    1.0000 </r>
       <r>    2.1238    1.0000 </r>
       <r>    2.2373    1.0000 </r>
       <r>    4.4434    0.0000 </r>
       <r>    6.3355    0.0000 </r>
       <r>    7.1841    0.0000 </r>
       <r>    7.3755    0.0000 </r>
       <r>   10.9957    0.0000 </r>
       <r>   11.5899    0.0000 </r>
       <r>   12.1941    0.0000 </r>
       <r>   13.6502    0.0000 </r>
       <r>   15.7122    0.0000 </r>
       <r>   16.4886    0.0000 </r>
       <r>   19.3272    0.0000 </r>
       <r>   22.9330    0.0000 </r>
       <r>   22.9380    0.0000 </r>
       <r>   24.6646    0.0000 </r>
       <r>   27.0264    0.0000 </r>
       <r>   27.0476    0.0000 </r>
       <r>   28.6115    0.0000 </r>
       <r>   29.5855    0.0000 </r>
       <r>   30.8393    0.0000 </r>
       <r>   31.3223    0.0000 </r>
       <r>   33.3569    0.0000 </r>
       <r>   34.5813    0.0000 </r>
       <r>   34.9817    0.0000 </r>
       <r>   35.9407    0.0000 </r>
       <r>   36.8355    0.0000 </r>
       <r>   37.3205    0.0000 </r>
       <r>   37.5554    0.0000 </r>
       <r>   38.5174    0.0000 </r>
       <r>   39.2385    0.0000 </r>
       <r>   39.6183    0.0000 </r>
       <r>   40.1045    0.0000 </r>
       <r>   40.9531    0.0000 </r>
       <r>   41.2902    0.0000 </r>
       <r>   42.0280    0.0000 </r>
       <r>   42.4596    0.0000 </r>
       <r>   43.1550    0.0000 </r>
       <r>   44.1548    0.0000 </r>
       <r>   44.2249    0.0000 </r>
       <r>   45.0219    0.0000 </r>
       <r>   45.2796    0.0000 </r>
       <r>   45.8764    0.0000 </r>
       <r>   46.9096    0.0000 </r>
       <r>   46.9155    0.0000 </r>
       <r>   47.7587    0.0000 </r>
       <r>   48.1190    0.0000 </r>
       <r>   49.0977    0.0000 </r>
       <r>   49.3463    0.0000 </r>
       <r>   50.4860    0.0000 </r>
       <r>   50.8173    0.0000 </r>
       <r>   51.5910    0.0000 </r>
       <r>   52.4840    0.0000 </r>
       <r>   53.5904    0.0000 </r>
       <r>   55.2735    0.0000 </r>
       <r>   56.7431    0.0000 </r>
       <r>   58.1845    0.0000 </r>
      </set>
      <set comment="kpoint 13">
       <r>  -12.1039    1.0000 </r>
       <r>  -12.0672    1.0000 </r>
       <r>  -12.0659    1.0000 </r>
       <r>  -12.0082    1.0000 </r>
       <r>  -12.0051    1.0000 </r>
       <r>   -9.1647    1.0000 </r>
       <r>   -0.8570    1.0000 </r>
       <r>    1.9219    1.0000 </r>
       <r>    2.0270    1.0000 </r>
       <r>    4.3997    0.0000 </r>
       <r>    6.6649    0.0000 </r>
       <r>    7.4424    0.0000 </r>
       <r>    7.9882    0.0000 </r>
       <r>   10.9178    0.0000 </r>
       <r>   11.9442    0.0000 </r>
       <r>   12.0916    0.0000 </r>
       <r>   13.9288    0.0000 </r>
       <r>   16.8551    0.0000 </r>
       <r>   17.7080    0.0000 </r>
       <r>   20.5334    0.0000 </r>
       <r>   21.2926    0.0000 </r>
       <r>   21.3801    0.0000 </r>
       <r>   23.1315    0.0000 </r>
       <r>   27.1946    0.0000 </r>
       <r>   27.1989    0.0000 </r>
       <r>   28.8345    0.0000 </r>
       <r>   29.7799    0.0000 </r>
       <r>   31.0121    0.0000 </r>
       <r>   31.6059    0.0000 </r>
       <r>   32.8981    0.0000 </r>
       <r>   33.9872    0.0000 </r>
       <r>   34.4035    0.0000 </r>
       <r>   35.6250    0.0000 </r>
       <r>   36.0089    0.0000 </r>
       <r>   36.8530    0.0000 </r>
       <r>   37.1889    0.0000 </r>
       <r>   37.9141    0.0000 </r>
       <r>   38.6088    0.0000 </r>
       <r>   38.8449    0.0000 </r>
       <r>   39.4440    0.0000 </r>
       <r>   40.3255    0.0000 </r>
       <r>   40.4597    0.0000 </r>
       <r>   42.0388    0.0000 </r>
       <r>   42.3663    0.0000 </r>
       <r>   42.4670    0.0000 </r>
       <r>   44.0130    0.0000 </r>
       <r>   44.0140    0.0000 </r>
       <r>   45.8754    0.0000 </r>
       <r>   46.1782    0.0000 </r>
       <r>   46.6321    0.0000 </r>
       <r>   47.4459    0.0000 </r>
       <r>   47.8195    0.0000 </r>
       <r>   49.0778    0.0000 </r>
       <r>   49.4800    0.0000 </r>
       <r>   50.4258    0.0000 </r>
       <r>   51.1249    0.0000 </r>
       <r>   51.8271    0.0000 </r>
       <r>   52.9061    0.0000 </r>
       <r>   53.0388    0.0000 </r>
       <r>   54.6405    0.0000 </r>
       <r>   54.8562    0.0000 </r>
       <r>   56.4673    0.0000 </r>
       <r>   56.7541    0.0000 </r>
       <r>   58.3004    0.0000 </r>
      </set>
      <set comment="kpoint 14">
       <r>  -12.1149    1.0000 </r>
       <r>  -12.0643    1.0000 </r>
       <r>  -12.0629    1.0000 </r>
       <r>  -12.0078    1.0000 </r>
       <r>  -12.0045    1.0000 </r>
       <r>   -8.8929    1.0000 </r>
       <r>   -1.7401    1.0000 </r>
       <r>    1.7504    1.0000 </r>
       <r>    1.8062    1.0000 </r>
       <r>    4.2611    0.0000 </r>
       <r>    6.9370    0.0000 </r>
       <r>    7.5837    0.0000 </r>
       <r>    8.6943    0.0000 </r>
       <r>   11.1371    0.0000 </r>
       <r>   11.8980    0.0000 </r>
       <r>   12.2903    0.0000 </r>
       <r>   14.8502    0.0000 </r>
       <r>   18.0834    0.0000 </r>
       <r>   19.0048    0.0000 </r>
       <r>   19.7595    0.0000 </r>
       <r>   19.9078    0.0000 </r>
       <r>   21.4025    0.0000 </r>
       <r>   22.2154    0.0000 </r>
       <r>   27.4237    0.0000 </r>
       <r>   27.4299    0.0000 </r>
       <r>   29.1002    0.0000 </r>
       <r>   29.7101    0.0000 </r>
       <r>   30.3886    0.0000 </r>
       <r>   31.1680    0.0000 </r>
       <r>   31.6204    0.0000 </r>
       <r>   32.6344    0.0000 </r>
       <r>   33.3750    0.0000 </r>
       <r>   35.0700    0.0000 </r>
       <r>   35.3283    0.0000 </r>
       <r>   36.7861    0.0000 </r>
       <r>   37.1119    0.0000 </r>
       <r>   37.4270    0.0000 </r>
       <r>   38.2918    0.0000 </r>
       <r>   38.8616    0.0000 </r>
       <r>   39.1847    0.0000 </r>
       <r>   39.9898    0.0000 </r>
       <r>   40.2033    0.0000 </r>
       <r>   41.9282    0.0000 </r>
       <r>   42.2510    0.0000 </r>
       <r>   43.0308    0.0000 </r>
       <r>   43.8900    0.0000 </r>
       <r>   44.0292    0.0000 </r>
       <r>   46.1570    0.0000 </r>
       <r>   46.7635    0.0000 </r>
       <r>   47.7305    0.0000 </r>
       <r>   48.1853    0.0000 </r>
       <r>   49.3067    0.0000 </r>
       <r>   50.7123    0.0000 </r>
       <r>   50.7349    0.0000 </r>
       <r>   51.8060    0.0000 </r>
       <r>   52.9919    0.0000 </r>
       <r>   53.0026    0.0000 </r>
       <r>   54.1395    0.0000 </r>
       <r>   55.1963    0.0000 </r>
       <r>   55.6180    0.0000 </r>
       <r>   56.4820    0.0000 </r>
       <r>   57.2350    0.0000 </r>
       <r>   57.5488    0.0000 </r>
       <r>   58.5554    0.0000 </r>
      </set>
      <set comment="kpoint 15">
       <r>  -12.1249    1.0000 </r>
       <r>  -12.0618    1.0000 </r>
       <r>  -12.0604    1.0000 </r>
       <r>  -12.0070    1.0000 </r>
       <r>  -12.0039    1.0000 </r>
       <r>   -8.5945    1.0000 </r>
       <r>   -2.5242    1.0000 </r>
       <r>    1.6042    1.0000 </r>
       <r>    1.6229    1.0000 </r>
       <r>    4.1157    0.0000 </r>
       <r>    7.0749    0.0000 </r>
       <r>    7.6022    0.0000 </r>
       <r>    9.4498    0.0000 </r>
       <r>   11.4237    0.0000 </r>
       <r>   12.0624    0.0000 </r>
       <r>   12.7911    0.0000 </r>
       <r>   15.7186    0.0000 </r>
       <r>   18.0842    0.0000 </r>
       <r>   18.7973    0.0000 </r>
       <r>   19.6557    0.0000 </r>
       <r>   19.9884    0.0000 </r>
       <r>   20.7048    0.0000 </r>
       <r>   23.5752    0.0000 </r>
       <r>   27.6533    0.0000 </r>
       <r>   27.6770    0.0000 </r>
       <r>   28.0973    0.0000 </r>
       <r>   29.3575    0.0000 </r>
       <r>   29.4726    0.0000 </r>
       <r>   30.5207    0.0000 </r>
       <r>   30.6119    0.0000 </r>
       <r>   31.6230    0.0000 </r>
       <r>   33.3766    0.0000 </r>
       <r>   34.2871    0.0000 </r>
       <r>   34.3829    0.0000 </r>
       <r>   35.4139    0.0000 </r>
       <r>   36.2903    0.0000 </r>
       <r>   36.6102    0.0000 </r>
       <r>   38.3087    0.0000 </r>
       <r>   38.6001    0.0000 </r>
       <r>   39.5570    0.0000 </r>
       <r>   40.5772    0.0000 </r>
       <r>   41.7056    0.0000 </r>
       <r>   41.8811    0.0000 </r>
       <r>   42.1178    0.0000 </r>
       <r>   43.9199    0.0000 </r>
       <r>   43.9274    0.0000 </r>
       <r>   44.6338    0.0000 </r>
       <r>   46.1552    0.0000 </r>
       <r>   47.4587    0.0000 </r>
       <r>   48.5396    0.0000 </r>
       <r>   49.6535    0.0000 </r>
       <r>   51.0379    0.0000 </r>
       <r>   51.6068    0.0000 </r>
       <r>   52.3544    0.0000 </r>
       <r>   52.8167    0.0000 </r>
       <r>   53.2889    0.0000 </r>
       <r>   54.8387    0.0000 </r>
       <r>   54.9727    0.0000 </r>
       <r>   55.5496    0.0000 </r>
       <r>   55.9891    0.0000 </r>
       <r>   56.4878    0.0000 </r>
       <r>   57.0501    0.0000 </r>
       <r>   57.7224    0.0000 </r>
       <r>   58.6937    0.0000 </r>
      </set>
      <set comment="kpoint 16">
       <r>  -12.1327    1.0000 </r>
       <r>  -12.0599    1.0000 </r>
       <r>  -12.0588    1.0000 </r>
       <r>  -12.0059    1.0000 </r>
       <r>  -12.0033    1.0000 </r>
       <r>   -8.3101    1.0000 </r>
       <r>   -3.1558    1.0000 </r>
       <r>    1.4386    1.0000 </r>
       <r>    1.5471    1.0000 </r>
       <r>    3.9995    0.0000 </r>
       <r>    7.1242    0.0000 </r>
       <r>    7.5457    0.0000 </r>
       <r>   10.1114    0.0000 </r>
       <r>   11.6091    0.0000 </r>
       <r>   12.7767    0.0000 </r>
       <r>   13.5213    0.0000 </r>
       <r>   15.6094    0.0000 </r>
       <r>   16.7721    0.0000 </r>
       <r>   18.1491    0.0000 </r>
       <r>   19.7003    0.0000 </r>
       <r>   21.0857    0.0000 </r>
       <r>   22.1145    0.0000 </r>
       <r>   24.9733    0.0000 </r>
       <r>   26.3861    0.0000 </r>
       <r>   27.3573    0.0000 </r>
       <r>   27.8364    0.0000 </r>
       <r>   28.2556    0.0000 </r>
       <r>   28.6580    0.0000 </r>
       <r>   29.7772    0.0000 </r>
       <r>   30.7005    0.0000 </r>
       <r>   31.7316    0.0000 </r>
       <r>   32.2284    0.0000 </r>
       <r>   33.6507    0.0000 </r>
       <r>   33.7081    0.0000 </r>
       <r>   34.9204    0.0000 </r>
       <r>   35.6105    0.0000 </r>
       <r>   36.0610    0.0000 </r>
       <r>   37.8039    0.0000 </r>
       <r>   37.9701    0.0000 </r>
       <r>   39.5280    0.0000 </r>
       <r>   41.4205    0.0000 </r>
       <r>   41.6840    0.0000 </r>
       <r>   42.9384    0.0000 </r>
       <r>   43.3064    0.0000 </r>
       <r>   43.9929    0.0000 </r>
       <r>   44.7081    0.0000 </r>
       <r>   45.7250    0.0000 </r>
       <r>   46.6954    0.0000 </r>
       <r>   48.3081    0.0000 </r>
       <r>   49.3637    0.0000 </r>
       <r>   51.0136    0.0000 </r>
       <r>   51.9003    0.0000 </r>
       <r>   52.2242    0.0000 </r>
       <r>   52.3746    0.0000 </r>
       <r>   52.9714    0.0000 </r>
       <r>   53.5200    0.0000 </r>
       <r>   54.6590    0.0000 </r>
       <r>   54.8010    0.0000 </r>
       <r>   55.8230    0.0000 </r>
       <r>   56.2008    0.0000 </r>
       <r>   56.8443    0.0000 </r>
       <r>   57.1107    0.0000 </r>
       <r>   58.1263    0.0000 </r>
       <r>   58.8950    0.0000 </r>
      </set>
      <set comment="kpoint 17">
       <r>  -12.1375    1.0000 </r>
       <r>  -12.0587    1.0000 </r>
       <r>  -12.0579    1.0000 </r>
       <r>  -12.0047    1.0000 </r>
       <r>  -12.0032    1.0000 </r>
       <r>   -8.1029    1.0000 </r>
       <r>   -3.5638    1.0000 </r>
       <r>    1.3201    1.0000 </r>
       <r>    1.5259    1.0000 </r>
       <r>    3.9274    0.0000 </r>
       <r>    7.1522    0.0000 </r>
       <r>    7.4680    0.0000 </r>
       <r>   10.4327    0.0000 </r>
       <r>   12.1396    0.0000 </r>
       <r>   13.6055    0.0000 </r>
       <r>   14.2640    0.0000 </r>
       <r>   14.8566    0.0000 </r>
       <r>   15.7011    0.0000 </r>
       <r>   17.0595    0.0000 </r>
       <r>   20.7802    0.0000 </r>
       <r>   22.6476    0.0000 </r>
       <r>   23.6937    0.0000 </r>
       <r>   24.1657    0.0000 </r>
       <r>   25.6726    0.0000 </r>
       <r>   26.7335    0.0000 </r>
       <r>   27.1793    0.0000 </r>
       <r>   28.1607    0.0000 </r>
       <r>   28.3195    0.0000 </r>
       <r>   29.9405    0.0000 </r>
       <r>   30.3203    0.0000 </r>
       <r>   30.8895    0.0000 </r>
       <r>   31.8572    0.0000 </r>
       <r>   33.2068    0.0000 </r>
       <r>   33.3793    0.0000 </r>
       <r>   35.0241    0.0000 </r>
       <r>   35.1753    0.0000 </r>
       <r>   35.7649    0.0000 </r>
       <r>   37.4018    0.0000 </r>
       <r>   37.5537    0.0000 </r>
       <r>   39.5050    0.0000 </r>
       <r>   41.3919    0.0000 </r>
       <r>   41.4407    0.0000 </r>
       <r>   43.6775    0.0000 </r>
       <r>   43.8367    0.0000 </r>
       <r>   45.0418    0.0000 </r>
       <r>   45.8606    0.0000 </r>
       <r>   46.4995    0.0000 </r>
       <r>   48.2721    0.0000 </r>
       <r>   49.1580    0.0000 </r>
       <r>   49.6993    0.0000 </r>
       <r>   50.5596    0.0000 </r>
       <r>   50.5865    0.0000 </r>
       <r>   51.6404    0.0000 </r>
       <r>   52.7451    0.0000 </r>
       <r>   53.2819    0.0000 </r>
       <r>   53.8214    0.0000 </r>
       <r>   53.9750    0.0000 </r>
       <r>   54.7525    0.0000 </r>
       <r>   56.6252    0.0000 </r>
       <r>   56.7362    0.0000 </r>
       <r>   57.4368    0.0000 </r>
       <r>   58.1445    0.0000 </r>
       <r>   58.8420    0.0000 </r>
       <r>   59.2787    0.0000 </r>
      </set>
      <set comment="kpoint 18">
       <r>  -12.1387    1.0000 </r>
       <r>  -12.0583    1.0000 </r>
       <r>  -12.0579    1.0000 </r>
       <r>  -12.0040    1.0000 </r>
       <r>  -12.0036    1.0000 </r>
       <r>   -8.0440    1.0000 </r>
       <r>   -3.6729    1.0000 </r>
       <r>    1.2549    1.0000 </r>
       <r>    1.5596    1.0000 </r>
       <r>    3.9054    0.0000 </r>
       <r>    7.1980    0.0000 </r>
       <r>    7.4021    0.0000 </r>
       <r>   10.4971    0.0000 </r>
       <r>   12.5553    0.0000 </r>
       <r>   13.8825    0.0000 </r>
       <r>   13.9334    0.0000 </r>
       <r>   14.8822    0.0000 </r>
       <r>   15.9675    0.0000 </r>
       <r>   16.1717    0.0000 </r>
       <r>   21.4224    0.0000 </r>
       <r>   23.3761    0.0000 </r>
       <r>   23.8294    0.0000 </r>
       <r>   24.1872    0.0000 </r>
       <r>   25.1513    0.0000 </r>
       <r>   25.5783    0.0000 </r>
       <r>   27.9830    0.0000 </r>
       <r>   28.1609    0.0000 </r>
       <r>   28.7129    0.0000 </r>
       <r>   29.1100    0.0000 </r>
       <r>   29.9930    0.0000 </r>
       <r>   30.8863    0.0000 </r>
       <r>   31.9260    0.0000 </r>
       <r>   33.0436    0.0000 </r>
       <r>   33.3256    0.0000 </r>
       <r>   35.0511    0.0000 </r>
       <r>   35.0729    0.0000 </r>
       <r>   35.7284    0.0000 </r>
       <r>   37.3033    0.0000 </r>
       <r>   37.4136    0.0000 </r>
       <r>   39.5649    0.0000 </r>
       <r>   41.1306    0.0000 </r>
       <r>   41.4517    0.0000 </r>
       <r>   43.8443    0.0000 </r>
       <r>   43.9059    0.0000 </r>
       <r>   45.4686    0.0000 </r>
       <r>   46.6687    0.0000 </r>
       <r>   46.7985    0.0000 </r>
       <r>   48.7963    0.0000 </r>
       <r>   49.0852    0.0000 </r>
       <r>   49.6593    0.0000 </r>
       <r>   50.0818    0.0000 </r>
       <r>   50.9279    0.0000 </r>
       <r>   51.1471    0.0000 </r>
       <r>   52.3357    0.0000 </r>
       <r>   53.0531    0.0000 </r>
       <r>   53.7621    0.0000 </r>
       <r>   54.6526    0.0000 </r>
       <r>   54.6997    0.0000 </r>
       <r>   56.4807    0.0000 </r>
       <r>   57.3263    0.0000 </r>
       <r>   57.6053    0.0000 </r>
       <r>   58.0292    0.0000 </r>
       <r>   58.8557    0.0000 </r>
       <r>   59.3325    0.0000 </r>
      </set>
      <set comment="kpoint 19">
       <r>  -12.1362    1.0000 </r>
       <r>  -12.0587    1.0000 </r>
       <r>  -12.0586    1.0000 </r>
       <r>  -12.0045    1.0000 </r>
       <r>  -12.0037    1.0000 </r>
       <r>   -8.1589    1.0000 </r>
       <r>   -3.4569    1.0000 </r>
       <r>    1.2467    1.0000 </r>
       <r>    1.6455    1.0000 </r>
       <r>    3.9349    0.0000 </r>
       <r>    7.2710    0.0000 </r>
       <r>    7.3571    0.0000 </r>
       <r>   10.4139    0.0000 </r>
       <r>   12.0302    0.0000 </r>
       <r>   12.9929    0.0000 </r>
       <r>   14.1984    0.0000 </r>
       <r>   14.9060    0.0000 </r>
       <r>   16.5810    0.0000 </r>
       <r>   17.1051    0.0000 </r>
       <r>   20.2972    0.0000 </r>
       <r>   22.1012    0.0000 </r>
       <r>   23.3007    0.0000 </r>
       <r>   24.7465    0.0000 </r>
       <r>   26.0999    0.0000 </r>
       <r>   26.6160    0.0000 </r>
       <r>   27.2859    0.0000 </r>
       <r>   28.0758    0.0000 </r>
       <r>   28.4253    0.0000 </r>
       <r>   29.8839    0.0000 </r>
       <r>   30.4886    0.0000 </r>
       <r>   31.2173    0.0000 </r>
       <r>   31.9088    0.0000 </r>
       <r>   33.2091    0.0000 </r>
       <r>   33.5614    0.0000 </r>
       <r>   34.9448    0.0000 </r>
       <r>   35.2585    0.0000 </r>
       <r>   35.9405    0.0000 </r>
       <r>   37.5726    0.0000 </r>
       <r>   37.5912    0.0000 </r>
       <r>   39.6966    0.0000 </r>
       <r>   40.9195    0.0000 </r>
       <r>   41.5058    0.0000 </r>
       <r>   43.8271    0.0000 </r>
       <r>   43.9532    0.0000 </r>
       <r>   44.9164    0.0000 </r>
       <r>   45.1010    0.0000 </r>
       <r>   45.9513    0.0000 </r>
       <r>   47.3544    0.0000 </r>
       <r>   49.0316    0.0000 </r>
[...]
        <r>  0.0185  0.0045  0.0055  0.0036  0.0035  0.0259  0.0005  0.0496  0.0164 </r>
       </set>
       <set comment="band 44">
        <r>  0.0304  0.0479  0.0038  0.0240  0.1147  0.0017  0.0021  0.0027  0.0147 </r>
        <r>  0.0009  0.0093  0.0017  0.0084  0.0130  0.0195  0.0001  0.0206  0.0279 </r>
       </set>
       <set comment="band 45">
        <r>  0.0000  0.0053  0.0004  0.0094  0.0086  0.0396  0.0061  0.0265  0.0685 </r>
        <r>  0.0014  0.0007  0.0004  0.0014  0.0296  0.0649  0.0002  0.1028  0.2354 </r>
       </set>
       <set comment="band 46">
        <r>  0.0008  0.0030  0.0050  0.0039  0.0050  0.0181  0.0011  0.0121  0.0047 </r>
        <r>  0.0111  0.0024  0.0019  0.0044  0.0099  0.0747  0.0278  0.0728  0.0198 </r>
       </set>
       <set comment="band 47">
        <r>  0.0004  0.0131  0.0021  0.0259  0.0032  0.0258  0.0006  0.0282  0.0198 </r>
        <r>  0.0050  0.0036  0.0077  0.0028  0.0121  0.0232  0.0000  0.0116  0.0146 </r>
       </set>
       <set comment="band 48">
        <r>  0.0487  0.0079  0.0041  0.0072  0.0018  0.0288  0.0084  0.0145  0.0004 </r>
        <r>  0.0033  0.0004  0.0021  0.0002  0.0174  0.0162  0.0019  0.0289  0.0203 </r>
       </set>
       <set comment="band 49">
        <r>  0.0069  0.0028  0.0053  0.0052  0.0153  0.0098  0.0013  0.0147  0.0029 </r>
        <r>  0.0039  0.0046  0.0028  0.0053  0.0499  0.0087  0.0005  0.0045  0.0102 </r>
       </set>
       <set comment="band 50">
        <r>  0.0240  0.0123  0.0254  0.0099  0.0193  0.0086  0.0076  0.0043  0.0027 </r>
        <r>  0.0004  0.0033  0.0105  0.0044  0.0007  0.0065  0.0589  0.0035  0.0053 </r>
       </set>
       <set comment="band 51">
        <r>  0.0008  0.0049  0.0014  0.0057  0.0038  0.0483  0.0420  0.0726  0.0207 </r>
        <r>  0.0140  0.0246  0.0023  0.0127  0.0137  0.0111  0.0022  0.0110  0.0020 </r>
       </set>
       <set comment="band 52">
        <r>  0.0003  0.0031  0.0000  0.0059  0.0076  0.0119  0.0354  0.0195  0.0599 </r>
        <r>  0.0004  0.0098  0.0320  0.0142  0.0062  0.0342  0.0214  0.0321  0.0009 </r>
       </set>
       <set comment="band 53">
        <r>  0.0186  0.0004  0.0034  0.0006  0.0338  0.0510  0.0030  0.0265  0.0042 </r>
        <r>  0.0002  0.0195  0.0149  0.0348  0.0035  0.0099  0.0018  0.0142  0.0091 </r>
       </set>
       <set comment="band 54">
        <r>  0.0113  0.0079  0.0397  0.0058  0.0021  0.0086  0.0013  0.0099  0.0055 </r>
        <r>  0.0155  0.0023  0.0004  0.0018  0.0005  0.0118  0.0023  0.0117  0.0001 </r>
       </set>
       <set comment="band 55">
        <r>  0.0001  0.0217  0.0001  0.0112  0.0391  0.0244  0.0043  0.0161  0.0180 </r>
        <r>  0.0002  0.0011  0.0002  0.0009  0.0280  0.0026  0.0051  0.0053  0.0149 </r>
       </set>
       <set comment="band 56">
        <r>  0.0024  0.0254  0.0103  0.0404  0.0211  0.0116  0.0011  0.0131  0.0221 </r>
        <r>  0.0013  0.0091  0.0000  0.0063  0.0269  0.0526  0.0007  0.0328  0.0049 </r>
       </set>
       <set comment="band 57">
        <r>  0.0224  0.0016  0.0015  0.0021  0.0023  0.0052  0.0042  0.0026  0.0042 </r>
        <r>  0.0234  0.0063  0.0000  0.0040  0.0246  0.0097  0.0129  0.0067  0.0077 </r>
       </set>
       <set comment="band 58">
        <r>  0.0102  0.0120  0.0005  0.0122  0.0015  0.0152  0.0007  0.0165  0.0119 </r>
        <r>  0.0005  0.0065  0.0022  0.0062  0.0144  0.0349  0.0371  0.0619  0.0399 </r>
       </set>
       <set comment="band 59">
        <r>  0.0087  0.0076  0.0029  0.0122  0.0240  0.0191  0.0335  0.0323  0.0068 </r>
        <r>  0.0026  0.0099  0.0000  0.0180  0.0085  0.0345  0.0000  0.0415  0.0681 </r>
       </set>
       <set comment="band 60">
        <r>  0.0361  0.0025  0.0055  0.0021  0.0110  0.0465  0.0002  0.0237  0.0026 </r>
        <r>  0.0084  0.0008  0.0013  0.0006  0.0052  0.0001  0.0010  0.0001  0.0101 </r>
       </set>
       <set comment="band 61">
        <r>  0.0007  0.0001  0.0000  0.0002  0.0112  0.0233  0.0041  0.0130  0.0683 </r>
        <r>  0.0084  0.0060  0.0282  0.0068  0.0242  0.0120  0.0543  0.0126  0.0056 </r>
       </set>
       <set comment="band 62">
        <r>  0.0003  0.0022  0.0367  0.0014  0.0254  0.0032  0.0063  0.0063  0.0161 </r>
        <r>  0.0170  0.0026  0.0002  0.0015  0.0285  0.0202  0.0145  0.0201  0.0447 </r>
       </set>
       <set comment="band 63">
        <r>  0.0382  0.0004  0.0116  0.0007  0.0206  0.0363  0.0029  0.0209  0.0036 </r>
        <r>  0.0002  0.0170  0.0061  0.0269  0.0622  0.0092  0.0318  0.0166  0.0393 </r>
       </set>
       <set comment="band 64">
        <r>  0.0118  0.0128  0.0087  0.0172  0.0011  0.0309  0.0085  0.0581  0.0040 </r>
        <r>  0.0129  0.0029  0.0004  0.0015  0.0018  0.0346  0.0619  0.0234  0.0002 </r>
       </set>
      </set>
      <set comment="kpoint 165">
       <set comment="band 1">
        <r>  0.0000  0.0003  0.0002  0.0005  0.1513  0.0728  0.3984  0.1397  0.1940 </r>
        <r>  0.0212  0.0000  0.0000  0.0000  0.0000  0.0000  0.0000  0.0000  0.0000 </r>
       </set>
       <set comment="band 2">
        <r>  0.0000  0.0000  0.0000  0.0000  0.1369  0.1179  0.3271  0.1589  0.2468 </r>
        <r>  0.0000  0.0004  0.0006  0.0002  0.0001  0.0001  0.0000  0.0002  0.0002 </r>
       </set>
       <set comment="band 3">
        <r>  0.0000  0.0000  0.0001  0.0000  0.1090  0.1621  0.0288  0.2917  0.3964 </r>
        <r>  0.0000  0.0007  0.0005  0.0006  0.0000  0.0000  0.0001  0.0001  0.0001 </r>
       </set>
       <set comment="band 4">
        <r>  0.0000  0.0000  0.0000  0.0000  0.4649  0.1077  0.1767  0.1053  0.1341 </r>
        <r>  0.0000  0.0000  0.0000  0.0000  0.0000  0.0000  0.0001  0.0000  0.0001 </r>
       </set>
       <set comment="band 5">
        <r>  0.0000  0.0000  0.0000  0.0000  0.1210  0.5260  0.0439  0.2887  0.0104 </r>
        <r>  0.0000  0.0001  0.0000  0.0001  0.0000  0.0000  0.0000  0.0000  0.0000 </r>
       </set>
       <set comment="band 6">
        <r>  0.0031  0.0159  0.0120  0.0254  0.0070  0.0035  0.0185  0.0071  0.0097 </r>
        <r>  0.5928  0.0001  0.0000  0.0002  0.0000  0.0000  0.0000  0.0000  0.0000 </r>
       </set>
       <set comment="band 7">
        <r>  0.4824  0.0004  0.0005  0.0003  0.0004  0.0002  0.0003  0.0003  0.0000 </r>
        <r>  0.0028  0.0402  0.0309  0.0675  0.0010  0.0004  0.0026  0.0011  0.0014 </r>
       </set>
       <set comment="band 8">
        <r>  0.0008  0.0213  0.0699  0.0701  0.0053  0.0030  0.0016  0.0012  0.0014 </r>
        <r>  0.0003  0.0431  0.0891  0.1358  0.0005  0.0003  0.0002  0.0001  0.0001 </r>
       </set>
       <set comment="band 9">
        <r>  0.0004  0.0988  0.0582  0.0321  0.0015  0.0004  0.0010  0.0012  0.0018 </r>
        <r>  0.0000  0.1452  0.1120  0.0052  0.0018  0.0007  0.0006  0.0004  0.0005 </r>
       </set>
       <set comment="band 10">
        <r>  0.1958  0.0025  0.0032  0.0008  0.0039  0.0131  0.0055  0.0001  0.0064 </r>
        <r>  0.0014  0.1358  0.0806  0.0801  0.0087  0.0054  0.0156  0.0010  0.0029 </r>
       </set>
       <set comment="band 11">
        <r>  0.0174  0.0226  0.0058  0.0541  0.0132  0.0010  0.0344  0.0057  0.0058 </r>
        <r>  0.0253  0.0282  0.0794  0.0640  0.0207  0.0001  0.0096  0.0006  0.0045 </r>
       </set>
       <set comment="band 12">
        <r>  0.0036  0.1274  0.0878  0.0473  0.0124  0.0084  0.0023  0.0051  0.0062 </r>
        <r>  0.0668  0.0071  0.0176  0.0125  0.0032  0.0234  0.0100  0.0018  0.0030 </r>
       </set>
       <set comment="band 13">
        <r>  0.0088  0.0355  0.0997  0.0821  0.0105  0.0040  0.0056  0.0155  0.0124 </r>
        <r>  0.0134  0.0014  0.0084  0.0245  0.0071  0.0006  0.0171  0.0270  0.0208 </r>
       </set>
       <set comment="band 14">
        <r>  0.0000  0.0803  0.0795  0.0089  0.0080  0.0142  0.0009  0.0279  0.0347 </r>
        <r>  0.0016  0.1095  0.0748  0.1013  0.0049  0.0036  0.0021  0.0107  0.0084 </r>
       </set>
       <set comment="band 15">
        <r>  0.0041  0.0506  0.0478  0.1467  0.0102  0.0042  0.0218  0.0237  0.0114 </r>
        <r>  0.0037  0.0010  0.0149  0.0613  0.0044  0.0291  0.0037  0.0480  0.0713 </r>
       </set>
       <set comment="band 16">
        <r>  0.0055  0.0335  0.0497  0.0163  0.0068  0.0534  0.0042  0.0059  0.0133 </r>
        <r>  0.0122  0.0454  0.0476  0.0204  0.0114  0.0415  0.0080  0.0113  0.0176 </r>
       </set>
       <set comment="band 17">
        <r>  0.0022  0.0520  0.0207  0.0546  0.0079  0.0123  0.0065  0.0178  0.0007 </r>
        <r>  0.0222  0.0260  0.0080  0.0349  0.0187  0.0538  0.0073  0.0533  0.0001 </r>
       </set>
       <set comment="band 18">
        <r>  0.0055  0.0062  0.0088  0.0096  0.0050  0.0173  0.0023  0.0093  0.0136 </r>
        <r>  0.0003  0.0004  0.0030  0.0046  0.0578  0.0363  0.0167  0.0231  0.0306 </r>
       </set>
       <set comment="band 19">
        <r>  0.0213  0.0183  0.0110  0.0191  0.0308  0.0047  0.0142  0.0140  0.0091 </r>
        <r>  0.0251  0.0002  0.0001  0.0000  0.0166  0.0062  0.0176  0.0046  0.0011 </r>
       </set>
       <set comment="band 20">
        <r>  0.0120  0.0054  0.0103  0.0072  0.0147  0.0290  0.0038  0.0501  0.0556 </r>
        <r>  0.0014  0.0036  0.0048  0.0020  0.0071  0.0015  0.0088  0.0326  0.0311 </r>
       </set>
       <set comment="band 21">
        <r>  0.0287  0.0143  0.0023  0.0615  0.0046  0.0273  0.0021  0.0223  0.0071 </r>
        <r>  0.0019  0.0029  0.0217  0.0323  0.0072  0.0171  0.0119  0.0162  0.0137 </r>
       </set>
       <set comment="band 22">
        <r>  0.0219  0.0216  0.0268  0.0152  0.0048  0.0010  0.0039  0.0072  0.0137 </r>
        <r>  0.0084  0.0315  0.0487  0.0172  0.0623  0.0119  0.0349  0.0515  0.0576 </r>
       </set>
       <set comment="band 23">
        <r>  0.0063  0.0240  0.0139  0.0023  0.0244  0.0658  0.0101  0.0445  0.0198 </r>
        <r>  0.0020  0.0437  0.0138  0.0117  0.0460  0.0639  0.0080  0.0458  0.0712 </r>
       </set>
       <set comment="band 24">
        <r>  0.0097  0.0055  0.0089  0.0034  0.0703  0.0086  0.0312  0.0165  0.0282 </r>
        <r>  0.0001  0.0176  0.0249  0.0091  0.0558  0.0018  0.1971  0.0104  0.0215 </r>
       </set>
       <set comment="band 25">
        <r>  0.0005  0.0033  0.0159  0.0303  0.0259  0.0321  0.0882  0.0822  0.1245 </r>
        <r>  0.0330  0.0002  0.0026  0.0048  0.0184  0.0518  0.0129  0.0018  0.0228 </r>
       </set>
       <set comment="band 26">
        <r>  0.0064  0.0227  0.0571  0.0428  0.0431  0.0091  0.0897  0.0047  0.0055 </r>
        <r>  0.0200  0.0017  0.0027  0.0010  0.0343  0.0083  0.0526  0.0383  0.0093 </r>
       </set>
       <set comment="band 27">
        <r>  0.0015  0.0821  0.0501  0.0066  0.0408  0.0292  0.0400  0.0142  0.0234 </r>
        <r>  0.0004  0.0108  0.0125  0.0021  0.0080  0.0183  0.0114  0.0295  0.0450 </r>
       </set>
       <set comment="band 28">
        <r>  0.0000  0.0025  0.0018  0.0006  0.0284  0.0053  0.0300  0.0056  0.0026 </r>
        <r>  0.0020  0.0035  0.0038  0.0006  0.0536  0.0022  0.0189  0.0058  0.0056 </r>
       </set>
       <set comment="band 29">
        <r>  0.0107  0.0087  0.0095  0.0060  0.0036  0.0008  0.0126  0.0037  0.0018 </r>
        <r>  0.0565  0.0005  0.0007  0.0002  0.0007  0.0004  0.0011  0.0071  0.0050 </r>
       </set>
       <set comment="band 30">
        <r>  0.0002  0.0038  0.0080  0.0070  0.0037  0.0097  0.0042  0.0030  0.0116 </r>
        <r>  0.0026  0.0019  0.0053  0.0042  0.0027  0.0863  0.0005  0.0392  0.0086 </r>
       </set>
       <set comment="band 31">
        <r>  0.0058  0.0003  0.0035  0.0067  0.0402  0.0066  0.0160  0.0191  0.0204 </r>
        <r>  0.0004  0.0032  0.0049  0.0034  0.0171  0.0148  0.0130  0.0104  0.0047 </r>
       </set>
       <set comment="band 32">
        <r>  0.0500  0.0048  0.0015  0.0013  0.0021  0.0338  0.0003  0.0260  0.0096 </r>
        <r>  0.0054  0.0049  0.0000  0.0099  0.0019  0.0063  0.0013  0.0020  0.0054 </r>
       </set>
       <set comment="band 33">
        <r>  0.0727  0.0002  0.0029  0.0055  0.0099  0.0611  0.0047  0.0291  0.0029 </r>
        <r>  0.0005  0.0018  0.0022  0.0008  0.0001  0.0017  0.0002  0.0005  0.0008 </r>
       </set>
       <set comment="band 34">
        <r>  0.0038  0.0020  0.0010  0.0096  0.0226  0.0044  0.0253  0.0083  0.0258 </r>
        <r>  0.0017  0.0078  0.0017  0.0087  0.0857  0.0051  0.0354  0.0073  0.0176 </r>
       </set>
       <set comment="band 35">
        <r>  0.0007  0.0115  0.0133  0.0113  0.0254  0.0068  0.0217  0.0041  0.0051 </r>
        <r>  0.0032  0.0004  0.0006  0.0021  0.0316  0.0987  0.0130  0.0306  0.0045 </r>
       </set>
       <set comment="band 36">
        <r>  0.0036  0.0003  0.0018  0.0023  0.0089  0.0509  0.0033  0.0250  0.0021 </r>
        <r>  0.0001  0.0211  0.0242  0.0165  0.0001  0.0036  0.0008  0.0053  0.0105 </r>
       </set>
       <set comment="band 37">
        <r>  0.0000  0.0127  0.0067  0.0122  0.0673  0.0061  0.0271  0.0039  0.0090 </r>
        <r>  0.0005  0.0045  0.0034  0.0151  0.0609  0.0045  0.0531  0.0065  0.0072 </r>
       </set>
       <set comment="band 38">
        <r>  0.0020  0.0161  0.0133  0.0005  0.0442  0.0316  0.0129  0.0271  0.0323 </r>
        <r>  0.0009  0.0196  0.0146  0.0094  0.0679  0.0343  0.2157  0.0273  0.0625 </r>
       </set>
       <set comment="band 39">
        <r>  0.0083  0.0031  0.0035  0.0009  0.0156  0.0129  0.0360  0.0093  0.0183 </r>
        <r>  0.0000  0.0359  0.0256  0.0012  0.1051  0.0579  0.0697  0.0228  0.0278 </r>
       </set>
       <set comment="band 40">
        <r>  0.0050  0.0025  0.0043  0.0035  0.0234  0.0009  0.0617  0.0156  0.0114 </r>
        <r>  0.0116  0.0059  0.0226  0.0232  0.0212  0.0094  0.0264  0.0760  0.1208 </r>
       </set>
       <set comment="band 41">
        <r>  0.0006  0.0064  0.0067  0.0160  0.0056  0.0095  0.0310  0.0276  0.0452 </r>
        <r>  0.0311  0.0000  0.0032  0.0099  0.0048  0.0397  0.0015  0.0926  0.0141 </r>
       </set>
       <set comment="band 42">
        <r>  0.0005  0.0246  0.0183  0.0056  0.0527  0.0475  0.1009  0.0156  0.0373 </r>
        <r>  0.0031  0.0071  0.0052  0.0004  0.0250  0.0368  0.0068  0.0754  0.1027 </r>
       </set>
       <set comment="band 43">
        <r>  0.0013  0.0424  0.0355  0.0035  0.0736  0.0140  0.0605  0.0033  0.0047 </r>
        <r>  0.0018  0.0027  0.0029  0.0034  0.0207  0.0667  0.0087  0.0402  0.0023 </r>
       </set>
       <set comment="band 44">
        <r>  0.0071  0.0023  0.0126  0.0165  0.0011  0.0001  0.0049  0.0290  0.0213 </r>
        <r>  0.0132  0.0020  0.0024  0.0015  0.0187  0.0574  0.0088  0.0268  0.0028 </r>
       </set>
       <set comment="band 45">
        <r>  0.0043  0.0030  0.0092  0.0102  0.0134  0.0046  0.0131  0.0324  0.0567 </r>
        <r>  0.0040  0.0052  0.0028  0.0003  0.0066  0.0616  0.0019  0.0759  0.0937 </r>
       </set>
       <set comment="band 46">
        <r>  0.0258  0.0011  0.0009  0.0092  0.0074  0.0066  0.0039  0.0023  0.0086 </r>
        <r>  0.0132  0.0025  0.0068  0.0055  0.0075  0.0095  0.0017  0.0201  0.0198 </r>
       </set>
       <set comment="band 47">
        <r>  0.0067  0.0017  0.0031  0.0015  0.0012  0.0760  0.0032  0.0401  0.0009 </r>
        <r>  0.0004  0.0028  0.0013  0.0032  0.0105  0.0322  0.0128  0.0140  0.0340 </r>
       </set>
       <set comment="band 48">
        <r>  0.0021  0.0035  0.0064  0.0085  0.0097  0.0041  0.0047  0.0073  0.0133 </r>
        <r>  0.0016  0.0019  0.0058  0.0051  0.0259  0.0368  0.0085  0.0735  0.0852 </r>
       </set>
       <set comment="band 49">
        <r>  0.0742  0.0001  0.0085  0.0285  0.0055  0.0268  0.0010  0.0400  0.0033 </r>
        <r>  0.0005  0.0008  0.0022  0.0101  0.0066  0.0015  0.0058  0.0104  0.0035 </r>
       </set>
       <set comment="band 50">
        <r>  0.0028  0.0113  0.0047  0.0016  0.0211  0.0041  0.0082  0.0021  0.0013 </r>
        <r>  0.0060  0.0055  0.0077  0.0023  0.0252  0.0086  0.0255  0.0053  0.0116 </r>
       </set>
       <set comment="band 51">
        <r>  0.0092  0.0036  0.0043  0.0069  0.0070  0.0294  0.0203  0.0360  0.0694 </r>
        <r>  0.0167  0.0200  0.0050  0.0208  0.0050  0.0076  0.0062  0.0237  0.0092 </r>
       </set>
       <set comment="band 52">
        <r>  0.0143  0.0016  0.0020  0.0005  0.0157  0.0603  0.0075  0.0333  0.0373 </r>
        <r>  0.0029  0.0233  0.0333  0.0109  0.0007  0.0281  0.0044  0.0170  0.0327 </r>
       </set>
       <set comment="band 53">
        <r>  0.0044  0.0086  0.0026  0.0130  0.0243  0.0089  0.0157  0.0248  0.0060 </r>
        <r>  0.0039  0.0121  0.0007  0.0308  0.0216  0.0435  0.0124  0.0119  0.0074 </r>
       </set>
       <set comment="band 54">
        <r>  0.0002  0.0282  0.0332  0.0169  0.0054  0.0019  0.0041  0.0033  0.0029 </r>
        <r>  0.0009  0.0068  0.0041  0.0008  0.0245  0.0025  0.0099  0.0050  0.0090 </r>
       </set>
       <set comment="band 55">
        <r>  0.0084  0.0224  0.0064  0.0054  0.0175  0.0289  0.0104  0.0236  0.0072 </r>
        <r>  0.0001  0.0003  0.0011  0.0029  0.0081  0.0146  0.0189  0.0392  0.0081 </r>
       </set>
       <set comment="band 56">
        <r>  0.0087  0.0010  0.0040  0.0206  0.0161  0.0153  0.0098  0.0091  0.0253 </r>
        <r>  0.0011  0.0014  0.0030  0.0023  0.0015  0.0495  0.0085  0.0037  0.0099 </r>
       </set>
       <set comment="band 57">
        <r>  0.0057  0.0033  0.0058  0.0148  0.0052  0.0027  0.0094  0.0070  0.0129 </r>
        <r>  0.0056  0.0032  0.0097  0.0082  0.0223  0.0045  0.0166  0.0068  0.0117 </r>
       </set>
       <set comment="band 58">
        <r>  0.0059  0.0094  0.0110  0.0021  0.0026  0.0626  0.0027  0.0263  0.0242 </r>
        <r>  0.0085  0.0022  0.0042  0.0038  0.0091  0.0057  0.0309  0.0252  0.0329 </r>
       </set>
       <set comment="band 59">
        <r>  0.0006  0.0057  0.0094  0.0040  0.0225  0.0100  0.0054  0.0098  0.0118 </r>
        <r>  0.0199  0.0054  0.0038  0.0004  0.0322  0.0137  0.0066  0.0194  0.0174 </r>
       </set>
       <set comment="band 60">
        <r>  0.0002  0.0022  0.0009  0.0012  0.0147  0.0156  0.0078  0.0345  0.0254 </r>
        <r>  0.0305  0.0052  0.0035  0.0124  0.0096  0.0004  0.0107  0.0068  0.0020 </r>
       </set>
       <set comment="band 61">
        <r>  0.0330  0.0059  0.0008  0.0177  0.0144  0.0233  0.0041  0.0329  0.0018 </r>
        <r>  0.0022  0.0031  0.0048  0.0017  0.0109  0.0009  0.0121  0.0237  0.0224 </r>
       </set>
       <set comment="band 62">
        <r>  0.0374  0.0042  0.0062  0.0027  0.0104  0.0103  0.0133  0.0316  0.0145 </r>
        <r>  0.0107  0.0009  0.0073  0.0320  0.0272  0.0060  0.0273  0.0561  0.0567 </r>
       </set>
       <set comment="band 63">
        <r>  0.0037  0.0106  0.0043  0.0059  0.0366  0.0191  0.0137  0.0075  0.0079 </r>
        <r>  0.0015  0.0062  0.0038  0.0044  0.0797  0.0577  0.0823  0.0230  0.0501 </r>
       </set>
       <set comment="band 64">
        <r>  0.0844  0.0010  0.0016  0.0026  0.0142  0.0040  0.0220  0.0010  0.0030 </r>
        <r>  0.0003  0.0072  0.0057  0.0052  0.0604  0.0320  0.1025  0.0047  0.0129 </r>
       </set>
      </set>
     </set>
    </set>
   </array>
  </projected>
 </calculation>
 <structure name="finalpos" >
  <crystal>
   <varray name="basis" >
    <v>       3.52059400       0.00000000       2.03261700 </v>
    <v>       1.17353100       3.31924800       2.03261700 </v>
    <v>       0.00000000       0.00000000       4.06523200 </v>
   </varray>
   <i name="volume">     47.50518156 </i>
   <varray name="rec_basis" >
    <v>       0.28404298      -0.10042432       0.00000000 </v>
    <v>       0.00000000       0.30127306       0.00000000 </v>
    <v>      -0.14202156      -0.10042442       0.24598842 </v>
   </varray>
  </crystal>
  <varray name="positions" >
   <v>       0.00000000       0.00000000       0.00000000 </v>
   <v>       0.25000000       0.25000000       0.25000000 </v>
  </varray>
 </structure>
</modeling>
