 vasp.5.4.2 08Feb16 (build Dec 01 2016 17:47:21) complex                        
  
 executed on      IFC17_CrayMPICH date 2017.01.04  13:44:19
 running   32 mpi-ranks, with    8 threads/rank
 distrk:  each k-point on   32 cores,    1 groups
 distr:  one band on NCORES_PER_BAND=   1 cores,   32 groups


--------------------------------------------------------------------------------------------------------


 INCAR:
 POTCAR:   PAW_GGA Si 05Jan2001                   

 ----------------------------------------------------------------------------- 
|                                                                             |
|           W    W    AA    RRRRR   N    N  II  N    N   GGGG   !!!           |
|           W    W   A  A   R    R  NN   N  II  NN   N  G    G  !!!           |
|           W    W  A    A  R    R  N N  N  II  N N  N  G       !!!           |
|           W WW W  AAAAAA  RRRRR   N  N N  II  N  N N  G  GGG   !            |
|           WW  WW  A    A  R   R   N   NN  II  N   NN  G    G                |
|           W    W  A    A  R    R  N    N  II  N    N   GGGG   !!!           |
|                                                                             |
|      For optimal performance we recommend to set                            |
|        NCORE= 4 - approx SQRT( number of cores)                             |
|      NCORE specifies how many cores store one orbital (NPAR=cpu/NCORE).     |
|      This setting can  greatly improve the performance of VASP for DFT.     |
|      The default, NPAR=number of cores might be grossly inefficient         |
|      on modern multi-core architectures or massively parallel machines.     |
|      Do your own testing !!!!                                               |
|      Unfortunately you need to use the default for GW and RPA calculations. |
|      (for HF NCORE is supported but not extensively tested yet)             |
|                                                                             |
 ----------------------------------------------------------------------------- 

 POTCAR:   PAW_GGA Si 05Jan2001                   
   VRHFIN =Si: s2p2                                                             
   LEXCH  = 91                                                                  
   EATOM  =   103.3076 eV,    7.5929 Ry                                         
                                                                                
   TITEL  = PAW_GGA Si 05Jan2001                                                
   LULTRA =        F    use ultrasoft PP ?                                      
   IUNSCR =        1    unscreen: 0-lin 1-nonlin 2-no                           
   RPACOR =    1.500    partial core radius                                     
   POMASS =   28.085; ZVAL   =    4.000    mass and valenz                      
   RCORE  =    1.900    outmost cutoff radius                                   
   RWIGS  =    2.480; RWIGS  =    1.312    wigner-seitz radius (au A)           
   ENMAX  =  245.435; ENMIN  =  184.076 eV                                      
   ICORE  =        2    local potential                                         
   LCOR   =        T    correct aug charges                                     
   LPAW   =        T    paw PP                                                  
   EAUG   =  322.069                                                            
   DEXC   =    -.001                                                            
   RMAX   =    2.943    core radius for proj-oper                               
   RAUG   =    1.300    factor for augmentation sphere                          
   RDEP   =    1.993    core radius for depl-charge                             
   QCUT   =   -4.247; QGAM   =    8.494    optimization parameters              
                                                                                
   Description                                                                  
     l     E      TYP  RCUT    TYP  RCUT                                        
     0   .000     23  1.900                                                     
     0   .000     23  1.900                                                     
     1   .000     23  1.900                                                     
     1   .000     23  1.900                                                     
     2   .000      7  1.900                                                     
  local pseudopotential read in
  partial core-charges read in
  atomic valenz-charges read in
  non local Contribution for L=           0  read in
    real space projection operators read in
  non local Contribution for L=           0  read in
    real space projection operators read in
  non local Contribution for L=           1  read in
    real space projection operators read in
  non local Contribution for L=           1  read in
    real space projection operators read in
    PAW grid and wavefunctions read in
 
   number of l-projection  operators is LMAX  =           4
   number of lm-projection operators is LMMAX =           8
 

 ----------------------------------------------------------------------------- 
|                                                                             |
|  ADVICE TO THIS USER RUNNING 'VASP/VAMP'   (HEAR YOUR MASTER'S VOICE ...):  |
|                                                                             |
|      You have a (more or less) 'small supercell' and for smaller cells      |
|      it is recommended  to use the reciprocal-space projection scheme!      |
|      The real space optimization is not  efficient for small cells and it   |
|      is also less accurate ...                                              |
|      Therefore set LREAL=.FALSE. in the  INCAR file                         |
|                                                                             |
 ----------------------------------------------------------------------------- 

 Optimization of the real space projectors (new method)

 maximal supplied QI-value         = 19.84
 optimisation between [QCUT,QGAM] = [ 11.51, 23.22] = [ 37.09,150.92] Ry 
 Optimized for a Real-space Cutoff    1.21 Angstroem

   l    n(q)    QCUT    max X(q) W(low)/X(q) W(high)/X(q)  e(spline) 
   0      8    11.508     8.672    0.18E-04    0.45E-05    0.47E-08
   0      8    11.508   105.657    0.70E-04    0.15E-03    0.51E-07
   1      8    11.508     5.870    0.63E-05    0.23E-04    0.21E-07
   1      8    11.508    73.136    0.16E-03    0.36E-04    0.79E-07
 PAW_GGA Si 05Jan2001                   :
 energy of atom  1       EATOM= -103.3076
 kinetic energy error for atom=    0.0006 (will be added to EATOM!!)
 
 
 POSCAR: Si2                                     
  positions in direct lattice
  No initial velocities read in
 exchange correlation table for  LEXCH =        7
   RHO(1)=    0.500       N(1)  =     2000
   RHO(2)=  100.500       N(2)  =     4000
 


--------------------------------------------------------------------------------------------------------


 ion  position               nearest neighbor table
   1  0.875  0.875  0.875-   2 2.37   2 2.37   2 2.37   2 2.37
   2  0.125  0.125  0.125-   1 2.37   1 2.37   1 2.37   1 2.37
 

IMPORTANT INFORMATION: All symmetrisations will be switched off!
NOSYMM: (Re-)initialisation of all symmetry stuff for point group C_1.

 
 
 KPOINTS: Non SCF run on uniform grid             
  k-points in reciprocal lattice
Space group operators:
 irot       det(A)        alpha          n_x          n_y          n_z        tau_x        tau_y        tau_z
    1     1.000000     0.000000     1.000000     0.000000     0.000000     0.000000     0.000000     0.000000

 ----------------------------------------------------------------------------- 
|                                                                             |
|           W    W    AA    RRRRR   N    N  II  N    N   GGGG   !!!           |
|           W    W   A  A   R    R  NN   N  II  NN   N  G    G  !!!           |
|           W    W  A    A  R    R  N N  N  II  N N  N  G       !!!           |
|           W WW W  AAAAAA  RRRRR   N  N N  II  N  N N  G  GGG   !            |
|           WW  WW  A    A  R   R   N   NN  II  N   NN  G    G                |
|           W    W  A    A  R    R  N    N  II  N    N   GGGG   !!!           |
|                                                                             |
|      The number of bands has been changed from the values supplied          |
|      in the INCAR file. This is a result of running the parallel version.   |
|      The orbitals not found in the WAVECAR file will be initialized with    |
|      random numbers, which is usually adequate. For correlated              |
|      calculations, however, you should redo the groundstate calculation.    |
|      I found NBANDS    =       39  now  NBANDS  =      64                   |
|                                                                             |
 ----------------------------------------------------------------------------- 



--------------------------------------------------------------------------------------------------------




 Dimension of arrays:
   k-points           NKPTS =    220   k-points in BZ     NKDIM =    220   number of bands    NBANDS=     64
   number of dos      NEDOS =    601   number of ions     NIONS =      2
   non local maximal  LDIM  =      4   non local SUM 2l+1 LMDIM =      8
   total plane-waves  NPLWV =  27000
   max r-space proj   IRMAX =   4959   max aug-charges    IRDMAX=  22275
   dimension x,y,z NGX =    30 NGY =   30 NGZ =   30
   dimension x,y,z NGXF=    60 NGYF=   60 NGZF=   60
   support grid    NGXF=    60 NGYF=   60 NGZF=   60
   ions per type =               2
 NGX,Y,Z   is equivalent  to a cutoff of  12.90, 12.90, 12.90 a.u.
 NGXF,Y,Z  is equivalent  to a cutoff of  25.79, 25.79, 25.79 a.u.


 I would recommend the setting:
   dimension x,y,z NGX =    29 NGY =   29 NGZ =   29
 SYSTEM =  unknown system                          
 POSCAR =  Si2                                     

 Startparameter for this run:
   NWRITE =      2    write-flag & timer
   PREC   = accura    normal or accurate (medium, high low for compatibility)
   ISTART =      0    job   : 0-new  1-cont  2-samecut
   ICHARG =     11    charge: 1-file 2-atom 10-const
   ISPIN  =      1    spin polarized calculation?
   LNONCOLLINEAR =      F non collinear calculations
   LSORBIT =      F    spin-orbit coupling
   INIWAV =      1    electr: 0-lowe 1-rand  2-diag
   LASPH  =      F    aspherical Exc in radial PAW
   METAGGA=      F    non-selfconsistent MetaGGA calc.

 Electronic Relaxation 1
   ENCUT  =  520.0 eV  38.22 Ry    6.18 a.u.   7.19  7.19  7.19*2*pi/ulx,y,z
   ENINI  =  520.0     initial cutoff
   ENAUG  =  322.1 eV  augmentation charge cutoff
   NELM   =    100;   NELMIN=  2; NELMDL=  0     # of ELM steps 
   EDIFF  = 0.1E-03   stopping-criterion for ELM
   LREAL  =      T    real-space projection
   NLSPLINE    = F    spline interpolate recip. space projectors
   LCOMPAT=      F    compatible to vasp.4.4
   GGA_COMPAT  = T    GGA compatible to vasp.4.4-vasp.4.6
   LMAXPAW     = -100 max onsite density
   LMAXMIX     =    2 max onsite mixed and CHGCAR
   VOSKOWN=      0    Vosko Wilk Nusair interpolation
   ROPT   =   -0.00025
 Ionic relaxation
   EDIFFG = 0.1E-02   stopping-criterion for IOM
   NSW    =      0    number of steps for IOM
   NBLOCK =      1;   KBLOCK =      1    inner block; outer block 
   IBRION =     -1    ionic relax: 0-MD 1-quasi-New 2-CG
   NFREE  =      0    steps in history (QN), initial steepest desc. (CG)
   ISIF   =      3    stress and relaxation
   IWAVPR =     10    prediction:  0-non 1-charg 2-wave 3-comb
   ISYM   =      0    0-nonsym 1-usesym 2-fastsym
   LCORR  =      T    Harris-Foulkes like correction to forces

   POTIM  = 0.5000    time-step for ionic-motion
   TEIN   =    0.0    initial temperature
   TEBEG  =    0.0;   TEEND  =   0.0 temperature during run
   SMASS  =  -3.00    Nose mass-parameter (am)
   estimated Nose-frequenzy (Omega)   =  0.10E-29 period in steps =****** mass=  -0.342E-27a.u.
   SCALEE = 1.0000    scale energy and forces
   NPACO  =    256;   APACO  = 16.0  distance and # of slots for P.C.
   PSTRESS=    0.0 pullay stress

  Mass of Ions in am
   POMASS =  28.09
  Ionic Valenz
   ZVAL   =   4.00
  Atomic Wigner-Seitz radii
   RWIGS  =  -1.00
  virtual crystal weights 
   VCA    =   1.00
   NELECT =       8.0000    total number of electrons
   NUPDOWN=      -1.0000    fix difference up-down

 DOS related values:
   EMIN   =  10.00;   EMAX   =-10.00  energy-range for DOS
   EFERMI =   0.00
   ISMEAR =     0;   SIGMA  =   0.00  broadening in eV -4-tet -1-fermi 0-gaus

 Electronic relaxation 2 (details)
   IALGO  =     38    algorithm
   LDIAG  =      T    sub-space diagonalisation (order eigenvalues)
   LSUBROT=      F    optimize rotation matrix (better conditioning)
   TURBO    =      0    0=normal 1=particle mesh
   IRESTART =      0    0=no restart 2=restart with 2 vectors
   NREBOOT  =      0    no. of reboots
   NMIN     =      0    reboot dimension
   EREF     =   0.00    reference energy to select bands
   IMIX   =      4    mixing-type and parameters
     AMIX     =   0.40;   BMIX     =  1.00
     AMIX_MAG =   1.60;   BMIX_MAG =  1.00
     AMIN     =   0.10
     WC   =   100.;   INIMIX=   1;  MIXPRE=   1;  MAXMIX= -45

 Intra band minimization:
   WEIMIN = 0.0000     energy-eigenvalue tresh-hold
   EBREAK =  0.39E-06  absolut break condition
   DEPER  =   0.30     relativ break condition  

   TIME   =   0.40     timestep for ELM

  volume/ion in A,a.u.               =      20.44       137.96
  Fermi-wavevector in a.u.,A,eV,Ry     =   0.950397  1.795990 12.289528  0.903255
  Thomas-Fermi vector in A             =   2.078770
 
 Write flags
   LWAVE        =      F    write WAVECAR
   LDOWNSAMPLE  =      F    k-point downsampling of WAVECAR
   LCHARG       =      F    write CHGCAR
   LVTOT        =      F    write LOCPOT, total local potential
   LVHAR        =      T    write LOCPOT, Hartree potential only
   LELF         =      F    write electronic localiz. function (ELF)
   LORBIT       =     11    0 simple, 1 ext, 2 COOP (PROOUT), +10 PAW based schemes


 Dipole corrections
   LMONO  =      F    monopole corrections only (constant potential shift)
   LDIPOL =      F    correct potential (dipole corrections)
   IDIPOL =      0    1-x, 2-y, 3-z, 4-all directions 
   EPSILON=  1.0000000 bulk dielectric constant

 Exchange correlation treatment:
   GGA     =    --    GGA type
   LEXCH   =     7    internal setting for exchange type
   VOSKOWN=      0    Vosko Wilk Nusair interpolation
   LHFCALC =     F    Hartree Fock is set to
   LHFONE  =     F    Hartree Fock one center treatment
   AEXX    =    0.0000 exact exchange contribution

 Linear response parameters
   LEPSILON=     F    determine dielectric tensor
   LRPA    =     F    only Hartree local field effects (RPA)
   LNABLA  =     F    use nabla operator in PAW spheres
   LVEL    =     F    velocity operator in full k-point grid
   LINTERFAST=   F  fast interpolation
   KINTER  =     0    interpolate to denser k-point grid
   CSHIFT  =0.1000    complex shift for real part using Kramers Kronig
   OMEGAMAX=  -1.0    maximum frequency
   DEG_THRESHOLD= 0.2000000E-02 threshold for treating states as degnerate
   RTIME   =    0.100 relaxation time in fs
   DFIELD  = 0.0000000 0.0000000 0.0000000 field for delta impulse in time

 Orbital magnetization related:
   ORBITALMAG=     F  switch on orbital magnetization
   LCHIMAG   =     F  perturbation theory with respect to B field
   DQ        =  0.001000  dq finite difference perturbation B field
   LLRAUG    =     F  two centre corrections for induced B field



--------------------------------------------------------------------------------------------------------


 Static calculation
 charge density and potential remain constant during run
 non-spin polarized calculation
 Variant of blocked Davidson
 Davidson routine will perform the subspace rotation
 perform sub-space diagonalisation
    after iterative eigenvector-optimisation
 no mixing
 using additional bands           60
 real space projection scheme for non local part
 use partial core corrections
 calculate Harris-corrections to forces 
   (improved forces if not selfconsistent)
 use gradient corrections 
 WARNING: stress and forces are not correct
  (second derivative of E(xc) not defined)
 use of overlap-Matrix (Vanderbilt PP)
 Gauss-broadening in eV      SIGMA  =   0.00


--------------------------------------------------------------------------------------------------------


  energy-cutoff  :      520.00
  volume of cell :       40.89
      direct lattice vectors                 reciprocal lattice vectors
     3.348898000  0.000000000  1.933487000     0.298605691 -0.105573000  0.000000000
     1.116299000  3.157372000  1.933487000     0.000000000  0.316719094  0.000000000
     0.000000000  0.000000000  3.866975000    -0.149302807 -0.105573020  0.258600069

  length of vectors
     3.866974243  3.866974707  3.866975000     0.316719145  0.316719094  0.316719096


 
 k-points in units of 2pi/SCALE and weight: Non SCF run on uniform grid             
   0.00000000  0.00000000  0.00000000       0.000
   0.01571609 -0.00555647  0.00000000       0.001
   0.03143218 -0.01111295  0.00000000       0.001
   0.04714827 -0.01666942  0.00000000       0.001
   0.06286436 -0.02222589  0.00000000       0.001
   0.07858044 -0.02778237  0.00000000       0.001
   0.09429653 -0.03333884  0.00000000       0.001
   0.11001262 -0.03889532  0.00000000       0.001
   0.12572871 -0.04445179  0.00000000       0.001
   0.14144480 -0.05000826  0.00000000       0.001
   0.01571609  0.01111295  0.00000000       0.001
   0.03143218  0.00555648  0.00000000       0.003
   0.04714827  0.00000000  0.00000000       0.003
   0.06286436 -0.00555647  0.00000000       0.003
   0.07858044 -0.01111294  0.00000000       0.003
   0.09429653 -0.01666942  0.00000000       0.003
   0.11001262 -0.02222589  0.00000000       0.003
   0.12572871 -0.02778236  0.00000000       0.003
   0.14144480 -0.03333884  0.00000000       0.003
  -0.14144480  0.06667769  0.00000000       0.003
  -0.12572871  0.06112122  0.00000000       0.003
  -0.11001262  0.05556474  0.00000000       0.003
  -0.09429653  0.05000827  0.00000000       0.003
  -0.07858044  0.04445179  0.00000000       0.003
  -0.06286436  0.03889532  0.00000000       0.003
  -0.04714827  0.03333885  0.00000000       0.003
  -0.03143218  0.02778237  0.00000000       0.003
  -0.01571609  0.02222590  0.00000000       0.002
   0.03143218  0.02222590  0.00000000       0.001
   0.04714827  0.01666943  0.00000000       0.003
   0.06286436  0.01111296  0.00000000       0.003
   0.07858044  0.00555648  0.00000000       0.003
   0.09429653  0.00000001  0.00000000       0.003
   0.11001262 -0.00555646  0.00000000       0.003
   0.12572871 -0.01111294  0.00000000       0.003
   0.14144480 -0.01666941  0.00000000       0.003
  -0.14144480  0.08334712  0.00000000       0.003
  -0.12572871  0.07779064  0.00000000       0.003
  -0.11001262  0.07223417  0.00000000       0.003
  -0.09429653  0.06667769  0.00000000       0.003
  -0.07858044  0.06112122  0.00000000       0.003
  -0.06286436  0.05556475  0.00000000       0.003
  -0.04714827  0.05000827  0.00000000       0.003
  -0.03143218  0.04445180  0.00000000       0.002
   0.04714827  0.03333886  0.00000000       0.001
   0.06286436  0.02778238  0.00000000       0.003
   0.07858044  0.02222591  0.00000000       0.003
   0.09429653  0.01666944  0.00000000       0.003
   0.11001262  0.01111296  0.00000000       0.003
   0.12572871  0.00555649  0.00000000       0.003
   0.14144480  0.00000001  0.00000000       0.003
  -0.14144480  0.10001654  0.00000000       0.003
  -0.12572871  0.09446007  0.00000000       0.003
  -0.11001262  0.08890359  0.00000000       0.003
  -0.09429653  0.08334712  0.00000000       0.003
  -0.07858044  0.07779065  0.00000000       0.003
  -0.06286436  0.07223417  0.00000000       0.003
  -0.04714827  0.06667770  0.00000000       0.002
   0.06286436  0.04445181  0.00000000       0.001
   0.07858044  0.03889534  0.00000000       0.003
   0.09429653  0.03333886  0.00000000       0.003
   0.11001262  0.02778239  0.00000000       0.003
   0.12572871  0.02222591  0.00000000       0.003
   0.14144480  0.01666944  0.00000000       0.003
  -0.14144480  0.11668597  0.00000000       0.003
  -0.12572871  0.11112949  0.00000000       0.003
  -0.11001262  0.10557302  0.00000000       0.003
  -0.09429653  0.10001655  0.00000000       0.003
  -0.07858044  0.09446007  0.00000000       0.003
  -0.06286436  0.08890360  0.00000000       0.002
   0.07858044  0.05556476  0.00000000       0.001
   0.09429653  0.05000829  0.00000000       0.003
   0.11001262  0.04445181  0.00000000       0.003
   0.12572871  0.03889534  0.00000000       0.003
   0.14144480  0.03333887  0.00000000       0.003
  -0.14144480  0.13335539  0.00000000       0.003
  -0.12572871  0.12779892  0.00000000       0.003
  -0.11001262  0.12224245  0.00000000       0.003
  -0.09429653  0.11668597  0.00000000       0.003
  -0.07858044  0.11112950  0.00000000       0.002
   0.09429653  0.06667771  0.00000000       0.001
   0.11001262  0.06112124  0.00000000       0.003
   0.12572871  0.05556477  0.00000000       0.003
   0.14144480  0.05000829  0.00000000       0.003
  -0.14144480  0.15002482  0.00000000       0.003
  -0.12572871  0.14446835  0.00000000       0.003
  -0.11001262  0.13891187  0.00000000       0.003
  -0.09429653  0.13335540  0.00000000       0.002
   0.11001262  0.07779067  0.00000000       0.001
   0.12572871  0.07223419  0.00000000       0.003
   0.14144480  0.06667772  0.00000000       0.003
  -0.14144480  0.16669425  0.00000000       0.003
  -0.12572871  0.16113777  0.00000000       0.003
  -0.11001262  0.15558130  0.00000000       0.002
   0.12572871  0.08890362  0.00000000       0.001
   0.14144480  0.08334714  0.00000000       0.003
  -0.14144480  0.18336367  0.00000000       0.003
  -0.12572871  0.17780720  0.00000000       0.002
   0.14144480  0.10001657  0.00000000       0.001
  -0.14144480  0.20003310  0.00000000       0.002
   0.03929022  0.01111296  0.01361053       0.003
   0.05500631  0.00555648  0.01361053       0.007
   0.07072240  0.00000001  0.01361053       0.007
   0.08643849 -0.00555646  0.01361053       0.007
   0.10215458 -0.01111294  0.01361053       0.007
   0.11787067 -0.01666941  0.01361053       0.007
   0.13358676 -0.02222589  0.01361053       0.007
  -0.14930284  0.07779064  0.01361053       0.007
   0.05500631  0.02222591  0.01361053       0.003
   0.07072240  0.01666943  0.01361053       0.007
   0.08643849  0.01111296  0.01361053       0.007
   0.10215458  0.00555649  0.01361053       0.007
   0.11787067  0.00000001  0.01361053       0.007
   0.13358676 -0.00555646  0.01361053       0.007
  -0.14930284  0.09446007  0.01361053       0.007
  -0.13358675  0.08890359  0.01361053       0.007
  -0.11787067  0.08334712  0.01361053       0.007
  -0.10215458  0.07779065  0.01361053       0.007
  -0.08643849  0.07223417  0.01361053       0.007
  -0.07072240  0.06667770  0.01361053       0.007
  -0.05500631  0.06112122  0.01361053       0.007
  -0.03929022  0.05556475  0.01361053       0.003
   0.07072240  0.03333886  0.01361053       0.003
   0.08643849  0.02778239  0.01361053       0.007
   0.10215458  0.02222591  0.01361053       0.007
   0.11787067  0.01666944  0.01361053       0.007
   0.13358676  0.01111297  0.01361053       0.007
  -0.14930284  0.11112949  0.01361053       0.007
  -0.13358675  0.10557302  0.01361053       0.007
  -0.11787067  0.10001655  0.01361053       0.007
  -0.10215458  0.09446007  0.01361053       0.007
  -0.08643849  0.08890360  0.01361053       0.007
  -0.07072240  0.08334712  0.01361053       0.007
  -0.05500631  0.07779065  0.01361053       0.003
   0.08643849  0.04445181  0.01361053       0.003
   0.10215458  0.03889534  0.01361053       0.007
   0.11787067  0.03333887  0.01361053       0.007
   0.13358676  0.02778239  0.01361053       0.007
  -0.14930284  0.12779892  0.01361053       0.007
  -0.13358675  0.12224244  0.01361053       0.007
  -0.11787067  0.11668597  0.01361053       0.007
  -0.10215458  0.11112950  0.01361053       0.007
  -0.08643849  0.10557302  0.01361053       0.007
  -0.07072240  0.10001655  0.01361053       0.003
   0.10215458  0.05556477  0.01361053       0.003
   0.11787067  0.05000829  0.01361053       0.007
   0.13358676  0.04445182  0.01361053       0.007
  -0.14930284  0.14446834  0.01361053       0.007
  -0.13358675  0.13891187  0.01361053       0.007
  -0.11787067  0.13335540  0.01361053       0.007
  -0.10215458  0.12779892  0.01361053       0.007
  -0.08643849  0.12224245  0.01361053       0.003
   0.11787067  0.06667772  0.01361053       0.003
   0.13358676  0.06112124  0.01361053       0.007
  -0.14930284  0.16113777  0.01361053       0.007
  -0.13358675  0.15558130  0.01361053       0.007
  -0.11787067  0.15002482  0.01361053       0.007
  -0.10215458  0.14446835  0.01361053       0.003
   0.13358676  0.07779067  0.01361053       0.003
  -0.14930284  0.17780720  0.01361053       0.007
  -0.13358675  0.17225072  0.01361053       0.007
  -0.11787067  0.16669425  0.01361053       0.003
  -0.14930284  0.19447662  0.01361053       0.003
  -0.13358675  0.18892015  0.01361053       0.003
   0.07858045  0.02222591  0.02722106       0.003
   0.09429654  0.01666944  0.02722106       0.007
   0.11001263  0.01111297  0.02722106       0.007
   0.12572872  0.00555649  0.02722106       0.007
  -0.15716089  0.10557302  0.02722106       0.007
  -0.14144480  0.10001654  0.02722106       0.007
   0.09429654  0.03333886  0.02722106       0.003
   0.11001263  0.02778239  0.02722106       0.007
   0.12572872  0.02222592  0.02722106       0.007
  -0.15716089  0.12224244  0.02722106       0.007
  -0.14144480  0.11668597  0.02722106       0.007
  -0.12572871  0.11112950  0.02722106       0.007
  -0.11001262  0.10557302  0.02722106       0.007
  -0.09429653  0.10001655  0.02722106       0.007
  -0.07858044  0.09446008  0.02722106       0.007
  -0.06286435  0.08890360  0.02722106       0.003
   0.11001263  0.04445182  0.02722106       0.003
   0.12572872  0.03889534  0.02722106       0.007
  -0.15716089  0.13891187  0.02722106       0.007
  -0.14144480  0.13335540  0.02722106       0.007
  -0.12572871  0.12779892  0.02722106       0.007
  -0.11001262  0.12224245  0.02722106       0.007
  -0.09429653  0.11668598  0.02722106       0.007
  -0.07858044  0.11112950  0.02722106       0.003
   0.12572872  0.05556477  0.02722106       0.003
  -0.15716089  0.15558130  0.02722106       0.007
  -0.14144480  0.15002482  0.02722106       0.007
  -0.12572871  0.14446835  0.02722106       0.007
  -0.11001262  0.13891187  0.02722106       0.007
  -0.09429653  0.13335540  0.02722106       0.003
  -0.15716089  0.17225072  0.02722106       0.003
  -0.14144480  0.16669425  0.02722106       0.007
  -0.12572871  0.16113777  0.02722106       0.007
  -0.11001262  0.15558130  0.02722106       0.003
  -0.14144480  0.18336367  0.02722106       0.003
  -0.12572871  0.17780720  0.02722106       0.003
   0.11787067  0.03333887  0.04083159       0.003
  -0.16501893  0.13335539  0.04083159       0.007
  -0.14930284  0.12779892  0.04083159       0.007
  -0.13358675  0.12224245  0.04083159       0.007
  -0.16501893  0.15002482  0.04083159       0.003
  -0.14930284  0.14446835  0.04083159       0.007
  -0.13358675  0.13891187  0.04083159       0.007
  -0.11787066  0.13335540  0.04083159       0.007
  -0.10215457  0.12779893  0.04083159       0.007
  -0.08643848  0.12224245  0.04083159       0.003
  -0.14930284  0.16113777  0.04083159       0.003
  -0.13358675  0.15558130  0.04083159       0.007
  -0.11787066  0.15002483  0.04083159       0.007
  -0.10215457  0.14446835  0.04083159       0.003
  -0.13358675  0.17225073  0.04083159       0.003
  -0.11787066  0.16669425  0.04083159       0.003
  -0.14144479  0.15002482  0.05444212       0.003
  -0.12572870  0.14446835  0.05444212       0.007
  -0.12572870  0.16113778  0.05444212       0.003
  -0.11001261  0.15558130  0.05444212       0.003
 
 k-points in reciprocal lattice and weights: Non SCF run on uniform grid             
   0.00000000  0.00000000  0.00000000       0.000
   0.05263158  0.00000000  0.00000000       0.001
   0.10526316  0.00000000  0.00000000       0.001
   0.15789474  0.00000000  0.00000000       0.001
   0.21052632  0.00000000  0.00000000       0.001
   0.26315789  0.00000000  0.00000000       0.001
   0.31578947  0.00000000  0.00000000       0.001
   0.36842105  0.00000000  0.00000000       0.001
   0.42105263  0.00000000  0.00000000       0.001
   0.47368421  0.00000000  0.00000000       0.001
   0.05263158  0.05263158  0.00000000       0.001
   0.10526316  0.05263158  0.00000000       0.003
   0.15789474  0.05263158  0.00000000       0.003
   0.21052632  0.05263158  0.00000000       0.003
   0.26315789  0.05263158  0.00000000       0.003
   0.31578947  0.05263158  0.00000000       0.003
   0.36842105  0.05263158  0.00000000       0.003
   0.42105263  0.05263158  0.00000000       0.003
   0.47368421  0.05263158  0.00000000       0.003
  -0.47368421  0.05263158  0.00000000       0.003
  -0.42105263  0.05263158  0.00000000       0.003
  -0.36842105  0.05263158  0.00000000       0.003
  -0.31578947  0.05263158  0.00000000       0.003
  -0.26315789  0.05263158  0.00000000       0.003
  -0.21052632  0.05263158  0.00000000       0.003
  -0.15789474  0.05263158  0.00000000       0.003
  -0.10526316  0.05263158  0.00000000       0.003
  -0.05263158  0.05263158  0.00000000       0.002
   0.10526316  0.10526316  0.00000000       0.001
   0.15789474  0.10526316  0.00000000       0.003
   0.21052632  0.10526316  0.00000000       0.003
   0.26315789  0.10526316  0.00000000       0.003
   0.31578947  0.10526316  0.00000000       0.003
   0.36842105  0.10526316  0.00000000       0.003
   0.42105263  0.10526316  0.00000000       0.003
   0.47368421  0.10526316  0.00000000       0.003
  -0.47368421  0.10526316  0.00000000       0.003
  -0.42105263  0.10526316  0.00000000       0.003
  -0.36842105  0.10526316  0.00000000       0.003
  -0.31578947  0.10526316  0.00000000       0.003
  -0.26315789  0.10526316  0.00000000       0.003
  -0.21052632  0.10526316  0.00000000       0.003
  -0.15789474  0.10526316  0.00000000       0.003
  -0.10526316  0.10526316  0.00000000       0.002
   0.15789474  0.15789474  0.00000000       0.001
   0.21052632  0.15789474  0.00000000       0.003
   0.26315789  0.15789474  0.00000000       0.003
   0.31578947  0.15789474  0.00000000       0.003
   0.36842105  0.15789474  0.00000000       0.003
   0.42105263  0.15789474  0.00000000       0.003
   0.47368421  0.15789474  0.00000000       0.003
  -0.47368421  0.15789474  0.00000000       0.003
  -0.42105263  0.15789474  0.00000000       0.003
  -0.36842105  0.15789474  0.00000000       0.003
  -0.31578947  0.15789474  0.00000000       0.003
  -0.26315789  0.15789474  0.00000000       0.003
  -0.21052632  0.15789474  0.00000000       0.003
  -0.15789474  0.15789474  0.00000000       0.002
   0.21052632  0.21052632  0.00000000       0.001
   0.26315789  0.21052632  0.00000000       0.003
   0.31578947  0.21052632  0.00000000       0.003
   0.36842105  0.21052632  0.00000000       0.003
   0.42105263  0.21052632  0.00000000       0.003
   0.47368421  0.21052632  0.00000000       0.003
  -0.47368421  0.21052632  0.00000000       0.003
  -0.42105263  0.21052632  0.00000000       0.003
  -0.36842105  0.21052632  0.00000000       0.003
  -0.31578947  0.21052632  0.00000000       0.003
  -0.26315789  0.21052632  0.00000000       0.003
  -0.21052632  0.21052632  0.00000000       0.002
   0.26315789  0.26315789  0.00000000       0.001
   0.31578947  0.26315789  0.00000000       0.003
   0.36842105  0.26315789  0.00000000       0.003
   0.42105263  0.26315789  0.00000000       0.003
   0.47368421  0.26315789  0.00000000       0.003
  -0.47368421  0.26315789  0.00000000       0.003
  -0.42105263  0.26315789  0.00000000       0.003
  -0.36842105  0.26315789  0.00000000       0.003
  -0.31578947  0.26315789  0.00000000       0.003
  -0.26315789  0.26315789  0.00000000       0.002
   0.31578947  0.31578947  0.00000000       0.001
   0.36842105  0.31578947  0.00000000       0.003
   0.42105263  0.31578947  0.00000000       0.003
   0.47368421  0.31578947  0.00000000       0.003
  -0.47368421  0.31578947  0.00000000       0.003
  -0.42105263  0.31578947  0.00000000       0.003
  -0.36842105  0.31578947  0.00000000       0.003
  -0.31578947  0.31578947  0.00000000       0.002
   0.36842105  0.36842105  0.00000000       0.001
   0.42105263  0.36842105  0.00000000       0.003
   0.47368421  0.36842105  0.00000000       0.003
  -0.47368421  0.36842105  0.00000000       0.003
  -0.42105263  0.36842105  0.00000000       0.003
  -0.36842105  0.36842105  0.00000000       0.002
   0.42105263  0.42105263  0.00000000       0.001
   0.47368421  0.42105263  0.00000000       0.003
  -0.47368421  0.42105263  0.00000000       0.003
  -0.42105263  0.42105263  0.00000000       0.002
   0.47368421  0.47368421  0.00000000       0.001
  -0.47368421  0.47368421  0.00000000       0.002
   0.15789474  0.10526316  0.05263158       0.003
   0.21052632  0.10526316  0.05263158       0.007
   0.26315789  0.10526316  0.05263158       0.007
   0.31578947  0.10526316  0.05263158       0.007
   0.36842105  0.10526316  0.05263158       0.007
   0.42105263  0.10526316  0.05263158       0.007
   0.47368421  0.10526316  0.05263158       0.007
  -0.47368421  0.10526316  0.05263158       0.007
   0.21052632  0.15789474  0.05263158       0.003
   0.26315789  0.15789474  0.05263158       0.007
   0.31578947  0.15789474  0.05263158       0.007
   0.36842105  0.15789474  0.05263158       0.007
   0.42105263  0.15789474  0.05263158       0.007
   0.47368421  0.15789474  0.05263158       0.007
  -0.47368421  0.15789474  0.05263158       0.007
  -0.42105263  0.15789474  0.05263158       0.007
  -0.36842105  0.15789474  0.05263158       0.007
  -0.31578947  0.15789474  0.05263158       0.007
  -0.26315789  0.15789474  0.05263158       0.007
  -0.21052632  0.15789474  0.05263158       0.007
  -0.15789474  0.15789474  0.05263158       0.007
  -0.10526316  0.15789474  0.05263158       0.003
   0.26315789  0.21052632  0.05263158       0.003
   0.31578947  0.21052632  0.05263158       0.007
   0.36842105  0.21052632  0.05263158       0.007
   0.42105263  0.21052632  0.05263158       0.007
   0.47368421  0.21052632  0.05263158       0.007
  -0.47368421  0.21052632  0.05263158       0.007
  -0.42105263  0.21052632  0.05263158       0.007
  -0.36842105  0.21052632  0.05263158       0.007
  -0.31578947  0.21052632  0.05263158       0.007
  -0.26315789  0.21052632  0.05263158       0.007
  -0.21052632  0.21052632  0.05263158       0.007
  -0.15789474  0.21052632  0.05263158       0.003
   0.31578947  0.26315789  0.05263158       0.003
   0.36842105  0.26315789  0.05263158       0.007
   0.42105263  0.26315789  0.05263158       0.007
   0.47368421  0.26315789  0.05263158       0.007
  -0.47368421  0.26315789  0.05263158       0.007
  -0.42105263  0.26315789  0.05263158       0.007
  -0.36842105  0.26315789  0.05263158       0.007
  -0.31578947  0.26315789  0.05263158       0.007
  -0.26315789  0.26315789  0.05263158       0.007
  -0.21052632  0.26315789  0.05263158       0.003
   0.36842105  0.31578947  0.05263158       0.003
   0.42105263  0.31578947  0.05263158       0.007
   0.47368421  0.31578947  0.05263158       0.007
  -0.47368421  0.31578947  0.05263158       0.007
  -0.42105263  0.31578947  0.05263158       0.007
  -0.36842105  0.31578947  0.05263158       0.007
  -0.31578947  0.31578947  0.05263158       0.007
  -0.26315789  0.31578947  0.05263158       0.003
   0.42105263  0.36842105  0.05263158       0.003
   0.47368421  0.36842105  0.05263158       0.007
  -0.47368421  0.36842105  0.05263158       0.007
  -0.42105263  0.36842105  0.05263158       0.007
  -0.36842105  0.36842105  0.05263158       0.007
  -0.31578947  0.36842105  0.05263158       0.003
   0.47368421  0.42105263  0.05263158       0.003
  -0.47368421  0.42105263  0.05263158       0.007
  -0.42105263  0.42105263  0.05263158       0.007
  -0.36842105  0.42105263  0.05263158       0.003
  -0.47368421  0.47368421  0.05263158       0.003
  -0.42105263  0.47368421  0.05263158       0.003
   0.31578947  0.21052632  0.10526316       0.003
   0.36842105  0.21052632  0.10526316       0.007
   0.42105263  0.21052632  0.10526316       0.007
   0.47368421  0.21052632  0.10526316       0.007
  -0.47368421  0.21052632  0.10526316       0.007
  -0.42105263  0.21052632  0.10526316       0.007
   0.36842105  0.26315789  0.10526316       0.003
   0.42105263  0.26315789  0.10526316       0.007
   0.47368421  0.26315789  0.10526316       0.007
  -0.47368421  0.26315789  0.10526316       0.007
  -0.42105263  0.26315789  0.10526316       0.007
  -0.36842105  0.26315789  0.10526316       0.007
  -0.31578947  0.26315789  0.10526316       0.007
  -0.26315789  0.26315789  0.10526316       0.007
  -0.21052632  0.26315789  0.10526316       0.007
  -0.15789474  0.26315789  0.10526316       0.003
   0.42105263  0.31578947  0.10526316       0.003
   0.47368421  0.31578947  0.10526316       0.007
  -0.47368421  0.31578947  0.10526316       0.007
  -0.42105263  0.31578947  0.10526316       0.007
  -0.36842105  0.31578947  0.10526316       0.007
  -0.31578947  0.31578947  0.10526316       0.007
  -0.26315789  0.31578947  0.10526316       0.007
  -0.21052632  0.31578947  0.10526316       0.003
   0.47368421  0.36842105  0.10526316       0.003
  -0.47368421  0.36842105  0.10526316       0.007
  -0.42105263  0.36842105  0.10526316       0.007
  -0.36842105  0.36842105  0.10526316       0.007
  -0.31578947  0.36842105  0.10526316       0.007
  -0.26315789  0.36842105  0.10526316       0.003
  -0.47368421  0.42105263  0.10526316       0.003
  -0.42105263  0.42105263  0.10526316       0.007
  -0.36842105  0.42105263  0.10526316       0.007
  -0.31578947  0.42105263  0.10526316       0.003
  -0.42105263  0.47368421  0.10526316       0.003
  -0.36842105  0.47368421  0.10526316       0.003
   0.47368421  0.31578947  0.15789474       0.003
  -0.47368421  0.31578947  0.15789474       0.007
  -0.42105263  0.31578947  0.15789474       0.007
  -0.36842105  0.31578947  0.15789474       0.007
  -0.47368421  0.36842105  0.15789474       0.003
  -0.42105263  0.36842105  0.15789474       0.007
  -0.36842105  0.36842105  0.15789474       0.007
  -0.31578947  0.36842105  0.15789474       0.007
  -0.26315789  0.36842105  0.15789474       0.007
  -0.21052632  0.36842105  0.15789474       0.003
  -0.42105263  0.42105263  0.15789474       0.003
  -0.36842105  0.42105263  0.15789474       0.007
  -0.31578947  0.42105263  0.15789474       0.007
  -0.26315789  0.42105263  0.15789474       0.003
  -0.36842105  0.47368421  0.15789474       0.003
  -0.31578947  0.47368421  0.15789474       0.003
  -0.36842105  0.42105263  0.21052632       0.003
  -0.31578947  0.42105263  0.21052632       0.007
  -0.31578947  0.47368421  0.21052632       0.003
  -0.26315789  0.47368421  0.21052632       0.003
 
 position of ions in fractional coordinates (direct lattice) 
   0.87500000  0.87500000  0.87500000
   0.12500000  0.12500000  0.12500000
 
 position of ions in cartesian coordinates  (Angst):
   3.90704738  2.76270050  6.76720537
   0.55814962  0.39467150  0.96674362
 


--------------------------------------------------------------------------------------------------------


 k-point  1 :   0.0000 0.0000 0.0000  plane waves:    1067
 k-point  2 :   0.0526 0.0000 0.0000  plane waves:    1091
 k-point  3 :   0.1053 0.0000 0.0000  plane waves:    1097
 k-point  4 :   0.1579 0.0000 0.0000  plane waves:    1098
 k-point  5 :   0.2105 0.0000 0.0000  plane waves:    1098
 k-point  6 :   0.2632 0.0000 0.0000  plane waves:    1095
 k-point  7 :   0.3158 0.0000 0.0000  plane waves:    1089
 k-point  8 :   0.3684 0.0000 0.0000  plane waves:    1101
 k-point  9 :   0.4211 0.0000 0.0000  plane waves:    1107
 k-point 10 :   0.4737 0.0000 0.0000  plane waves:    1098
 k-point 11 :   0.0526 0.0526 0.0000  plane waves:    1087
 k-point 12 :   0.1053 0.0526 0.0000  plane waves:    1099
 k-point 13 :   0.1579 0.0526 0.0000  plane waves:    1103
 k-point 14 :   0.2105 0.0526 0.0000  plane waves:    1102
 k-point 15 :   0.2632 0.0526 0.0000  plane waves:    1095
 k-point 16 :   0.3158 0.0526 0.0000  plane waves:    1096
 k-point 17 :   0.3684 0.0526 0.0000  plane waves:    1104
 k-point 18 :   0.4211 0.0526 0.0000  plane waves:    1107
 k-point 19 :   0.4737 0.0526 0.0000  plane waves:    1107
 k-point 20 :  -0.4737 0.0526 0.0000  plane waves:    1094
 k-point 21 :  -0.4211 0.0526 0.0000  plane waves:    1109
 k-point 22 :  -0.3684 0.0526 0.0000  plane waves:    1105
 k-point 23 :  -0.3158 0.0526 0.0000  plane waves:    1098
 k-point 24 :  -0.2632 0.0526 0.0000  plane waves:    1098
 k-point 25 :  -0.2105 0.0526 0.0000  plane waves:    1099
 k-point 26 :  -0.1579 0.0526 0.0000  plane waves:    1096
 k-point 27 :  -0.1053 0.0526 0.0000  plane waves:    1104
 k-point 28 :  -0.0526 0.0526 0.0000  plane waves:    1095
 k-point 29 :   0.1053 0.1053 0.0000  plane waves:    1102
 k-point 30 :   0.1579 0.1053 0.0000  plane waves:    1104
 k-point 31 :   0.2105 0.1053 0.0000  plane waves:    1103
 k-point 32 :   0.2632 0.1053 0.0000  plane waves:    1103
 k-point 33 :   0.3158 0.1053 0.0000  plane waves:    1098
 k-point 34 :   0.3684 0.1053 0.0000  plane waves:    1099
 k-point 35 :   0.4211 0.1053 0.0000  plane waves:    1101
 k-point 36 :   0.4737 0.1053 0.0000  plane waves:    1103
 k-point 37 :  -0.4737 0.1053 0.0000  plane waves:    1102
 k-point 38 :  -0.4211 0.1053 0.0000  plane waves:    1102
 k-point 39 :  -0.3684 0.1053 0.0000  plane waves:    1107
 k-point 40 :  -0.3158 0.1053 0.0000  plane waves:    1105
 k-point 41 :  -0.2632 0.1053 0.0000  plane waves:    1099
 k-point 42 :  -0.2105 0.1053 0.0000  plane waves:    1104
 k-point 43 :  -0.1579 0.1053 0.0000  plane waves:    1101
 k-point 44 :  -0.1053 0.1053 0.0000  plane waves:    1105
 k-point 45 :   0.1579 0.1579 0.0000  plane waves:    1094
 k-point 46 :   0.2105 0.1579 0.0000  plane waves:    1098
 k-point 47 :   0.2632 0.1579 0.0000  plane waves:    1096
 k-point 48 :   0.3158 0.1579 0.0000  plane waves:    1093
 k-point 49 :   0.3684 0.1579 0.0000  plane waves:    1098
 k-point 50 :   0.4211 0.1579 0.0000  plane waves:    1104
 k-point 51 :   0.4737 0.1579 0.0000  plane waves:    1107
 k-point 52 :  -0.4737 0.1579 0.0000  plane waves:    1101
 k-point 53 :  -0.4211 0.1579 0.0000  plane waves:    1098
 k-point 54 :  -0.3684 0.1579 0.0000  plane waves:    1107
 k-point 55 :  -0.3158 0.1579 0.0000  plane waves:    1111
 k-point 56 :  -0.2632 0.1579 0.0000  plane waves:    1098
 k-point 57 :  -0.2105 0.1579 0.0000  plane waves:    1096
 k-point 58 :  -0.1579 0.1579 0.0000  plane waves:    1099
 k-point 59 :   0.2105 0.2105 0.0000  plane waves:    1106
 k-point 60 :   0.2632 0.2105 0.0000  plane waves:    1097
 k-point 61 :   0.3158 0.2105 0.0000  plane waves:    1091
 k-point 62 :   0.3684 0.2105 0.0000  plane waves:    1090
 k-point 63 :   0.4211 0.2105 0.0000  plane waves:    1097
 k-point 64 :   0.4737 0.2105 0.0000  plane waves:    1099
 k-point 65 :  -0.4737 0.2105 0.0000  plane waves:    1101
 k-point 66 :  -0.4211 0.2105 0.0000  plane waves:    1106
 k-point 67 :  -0.3684 0.2105 0.0000  plane waves:    1104
 k-point 68 :  -0.3158 0.2105 0.0000  plane waves:    1107
 k-point 69 :  -0.2632 0.2105 0.0000  plane waves:    1102
 k-point 70 :  -0.2105 0.2105 0.0000  plane waves:    1093
 k-point 71 :   0.2632 0.2632 0.0000  plane waves:    1094
 k-point 72 :   0.3158 0.2632 0.0000  plane waves:    1091
 k-point 73 :   0.3684 0.2632 0.0000  plane waves:    1096
 k-point 74 :   0.4211 0.2632 0.0000  plane waves:    1095
 k-point 75 :   0.4737 0.2632 0.0000  plane waves:    1102
 k-point 76 :  -0.4737 0.2632 0.0000  plane waves:    1104
 k-point 77 :  -0.4211 0.2632 0.0000  plane waves:    1108
 k-point 78 :  -0.3684 0.2632 0.0000  plane waves:    1113
 k-point 79 :  -0.3158 0.2632 0.0000  plane waves:    1108
 k-point 80 :  -0.2632 0.2632 0.0000  plane waves:    1113
 k-point 81 :   0.3158 0.3158 0.0000  plane waves:    1094
 k-point 82 :   0.3684 0.3158 0.0000  plane waves:    1099
 k-point 83 :   0.4211 0.3158 0.0000  plane waves:    1096
 k-point 84 :   0.4737 0.3158 0.0000  plane waves:    1096
 k-point 85 :  -0.4737 0.3158 0.0000  plane waves:    1104
 k-point 86 :  -0.4211 0.3158 0.0000  plane waves:    1111
 k-point 87 :  -0.3684 0.3158 0.0000  plane waves:    1116
 k-point 88 :  -0.3158 0.3158 0.0000  plane waves:    1115
 k-point 89 :   0.3684 0.3684 0.0000  plane waves:    1094
 k-point 90 :   0.4211 0.3684 0.0000  plane waves:    1097
 k-point 91 :   0.4737 0.3684 0.0000  plane waves:    1098
 k-point 92 :  -0.4737 0.3684 0.0000  plane waves:    1108
 k-point 93 :  -0.4211 0.3684 0.0000  plane waves:    1112
 k-point 94 :  -0.3684 0.3684 0.0000  plane waves:    1115
 k-point 95 :   0.4211 0.4211 0.0000  plane waves:    1094
 k-point 96 :   0.4737 0.4211 0.0000  plane waves:    1099
 k-point 97 :  -0.4737 0.4211 0.0000  plane waves:    1111
 k-point 98 :  -0.4211 0.4211 0.0000  plane waves:    1110
 k-point 99 :   0.4737 0.4737 0.0000  plane waves:    1106
 k-point ** :  -0.4737 0.4737 0.0000  plane waves:    1104
 k-point ** :   0.1579 0.1053 0.0526  plane waves:    1098
 k-point ** :   0.2105 0.1053 0.0526  plane waves:    1101
 k-point ** :   0.2632 0.1053 0.0526  plane waves:    1103
 k-point ** :   0.3158 0.1053 0.0526  plane waves:    1104
 k-point ** :   0.3684 0.1053 0.0526  plane waves:    1099
 k-point ** :   0.4211 0.1053 0.0526  plane waves:    1103
 k-point ** :   0.4737 0.1053 0.0526  plane waves:    1106
 k-point ** :  -0.4737 0.1053 0.0526  plane waves:    1101
 k-point ** :   0.2105 0.1579 0.0526  plane waves:    1099
 k-point ** :   0.2632 0.1579 0.0526  plane waves:    1099
 k-point ** :   0.3158 0.1579 0.0526  plane waves:    1097
 k-point ** :   0.3684 0.1579 0.0526  plane waves:    1096
 k-point ** :   0.4211 0.1579 0.0526  plane waves:    1106
 k-point ** :   0.4737 0.1579 0.0526  plane waves:    1109
 k-point ** :  -0.4737 0.1579 0.0526  plane waves:    1104
 k-point ** :  -0.4211 0.1579 0.0526  plane waves:    1103
 k-point ** :  -0.3684 0.1579 0.0526  plane waves:    1107
 k-point ** :  -0.3158 0.1579 0.0526  plane waves:    1104
 k-point ** :  -0.2632 0.1579 0.0526  plane waves:    1100
 k-point ** :  -0.2105 0.1579 0.0526  plane waves:    1096
 k-point ** :  -0.1579 0.1579 0.0526  plane waves:    1097
 k-point ** :  -0.1053 0.1579 0.0526  plane waves:    1099
 k-point ** :   0.2632 0.2105 0.0526  plane waves:    1093
 k-point ** :   0.3158 0.2105 0.0526  plane waves:    1093
 k-point ** :   0.3684 0.2105 0.0526  plane waves:    1094
 k-point ** :   0.4211 0.2105 0.0526  plane waves:    1098
 k-point ** :   0.4737 0.2105 0.0526  plane waves:    1099
 k-point ** :  -0.4737 0.2105 0.0526  plane waves:    1103
 k-point ** :  -0.4211 0.2105 0.0526  plane waves:    1103
 k-point ** :  -0.3684 0.2105 0.0526  plane waves:    1105
 k-point ** :  -0.3158 0.2105 0.0526  plane waves:    1104
 k-point ** :  -0.2632 0.2105 0.0526  plane waves:    1102
 k-point ** :  -0.2105 0.2105 0.0526  plane waves:    1093
 k-point ** :  -0.1579 0.2105 0.0526  plane waves:    1097
 k-point ** :   0.3158 0.2632 0.0526  plane waves:    1091
 k-point ** :   0.3684 0.2632 0.0526  plane waves:    1091
 k-point ** :   0.4211 0.2632 0.0526  plane waves:    1093
 k-point ** :   0.4737 0.2632 0.0526  plane waves:    1096
 k-point ** :  -0.4737 0.2632 0.0526  plane waves:    1101
 k-point ** :  -0.4211 0.2632 0.0526  plane waves:    1103
 k-point ** :  -0.3684 0.2632 0.0526  plane waves:    1105
 k-point ** :  -0.3158 0.2632 0.0526  plane waves:    1101
 k-point ** :  -0.2632 0.2632 0.0526  plane waves:    1103
 k-point ** :  -0.2105 0.2632 0.0526  plane waves:    1099
 k-point ** :   0.3684 0.3158 0.0526  plane waves:    1092
 k-point ** :   0.4211 0.3158 0.0526  plane waves:    1089
 k-point ** :   0.4737 0.3158 0.0526  plane waves:    1096
 k-point ** :  -0.4737 0.3158 0.0526  plane waves:    1100
 k-point ** :  -0.4211 0.3158 0.0526  plane waves:    1108
 k-point ** :  -0.3684 0.3158 0.0526  plane waves:    1109
 k-point ** :  -0.3158 0.3158 0.0526  plane waves:    1107
 k-point ** :  -0.2632 0.3158 0.0526  plane waves:    1106
 k-point ** :   0.4211 0.3684 0.0526  plane waves:    1095
 k-point ** :   0.4737 0.3684 0.0526  plane waves:    1097
 k-point ** :  -0.4737 0.3684 0.0526  plane waves:    1100
 k-point ** :  -0.4211 0.3684 0.0526  plane waves:    1108
 k-point ** :  -0.3684 0.3684 0.0526  plane waves:    1108
 k-point ** :  -0.3158 0.3684 0.0526  plane waves:    1106
 k-point ** :   0.4737 0.4211 0.0526  plane waves:    1099
 k-point ** :  -0.4737 0.4211 0.0526  plane waves:    1100
 k-point ** :  -0.4211 0.4211 0.0526  plane waves:    1111
 k-point ** :  -0.3684 0.4211 0.0526  plane waves:    1108
 k-point ** :  -0.4737 0.4737 0.0526  plane waves:    1110
 k-point ** :  -0.4211 0.4737 0.0526  plane waves:    1111
 k-point ** :   0.3158 0.2105 0.1053  plane waves:    1102
 k-point ** :   0.3684 0.2105 0.1053  plane waves:    1096
 k-point ** :   0.4211 0.2105 0.1053  plane waves:    1100
 k-point ** :   0.4737 0.2105 0.1053  plane waves:    1094
 k-point ** :  -0.4737 0.2105 0.1053  plane waves:    1103
 k-point ** :  -0.4211 0.2105 0.1053  plane waves:    1109
 k-point ** :   0.3684 0.2632 0.1053  plane waves:    1094
 k-point ** :   0.4211 0.2632 0.1053  plane waves:    1096
 k-point ** :   0.4737 0.2632 0.1053  plane waves:    1097
 k-point ** :  -0.4737 0.2632 0.1053  plane waves:    1103
 k-point ** :  -0.4211 0.2632 0.1053  plane waves:    1105
 k-point ** :  -0.3684 0.2632 0.1053  plane waves:    1101
 k-point ** :  -0.3158 0.2632 0.1053  plane waves:    1101
 k-point ** :  -0.2632 0.2632 0.1053  plane waves:    1105
 k-point ** :  -0.2105 0.2632 0.1053  plane waves:    1103
 k-point ** :  -0.1579 0.2632 0.1053  plane waves:    1101
 k-point ** :   0.4211 0.3158 0.1053  plane waves:    1090
 k-point ** :   0.4737 0.3158 0.1053  plane waves:    1094
 k-point ** :  -0.4737 0.3158 0.1053  plane waves:    1096
 k-point ** :  -0.4211 0.3158 0.1053  plane waves:    1100
 k-point ** :  -0.3684 0.3158 0.1053  plane waves:    1101
 k-point ** :  -0.3158 0.3158 0.1053  plane waves:    1102
 k-point ** :  -0.2632 0.3158 0.1053  plane waves:    1103
 k-point ** :  -0.2105 0.3158 0.1053  plane waves:    1104
 k-point ** :   0.4737 0.3684 0.1053  plane waves:    1086
 k-point ** :  -0.4737 0.3684 0.1053  plane waves:    1095
 k-point ** :  -0.4211 0.3684 0.1053  plane waves:    1098
 k-point ** :  -0.3684 0.3684 0.1053  plane waves:    1105
 k-point ** :  -0.3158 0.3684 0.1053  plane waves:    1106
 k-point ** :  -0.2632 0.3684 0.1053  plane waves:    1102
 k-point ** :  -0.4737 0.4211 0.1053  plane waves:    1096
 k-point ** :  -0.4211 0.4211 0.1053  plane waves:    1101
 k-point ** :  -0.3684 0.4211 0.1053  plane waves:    1107
 k-point ** :  -0.3158 0.4211 0.1053  plane waves:    1102
 k-point ** :  -0.4211 0.4737 0.1053  plane waves:    1100
 k-point ** :  -0.3684 0.4737 0.1053  plane waves:    1107
 k-point ** :   0.4737 0.3158 0.1579  plane waves:    1097
 k-point ** :  -0.4737 0.3158 0.1579  plane waves:    1099
 k-point ** :  -0.4211 0.3158 0.1579  plane waves:    1100
 k-point ** :  -0.3684 0.3158 0.1579  plane waves:    1101
 k-point ** :  -0.4737 0.3684 0.1579  plane waves:    1098
 k-point ** :  -0.4211 0.3684 0.1579  plane waves:    1102
 k-point ** :  -0.3684 0.3684 0.1579  plane waves:    1100
 k-point ** :  -0.3158 0.3684 0.1579  plane waves:    1102
 k-point ** :  -0.2632 0.3684 0.1579  plane waves:    1104
 k-point ** :  -0.2105 0.3684 0.1579  plane waves:    1104
 k-point ** :  -0.4211 0.4211 0.1579  plane waves:    1099
 k-point ** :  -0.3684 0.4211 0.1579  plane waves:    1101
 k-point ** :  -0.3158 0.4211 0.1579  plane waves:    1102
 k-point ** :  -0.2632 0.4211 0.1579  plane waves:    1104
 k-point ** :  -0.3684 0.4737 0.1579  plane waves:    1102
 k-point ** :  -0.3158 0.4737 0.1579  plane waves:    1104
 k-point ** :  -0.3684 0.4211 0.2105  plane waves:    1101
 k-point ** :  -0.3158 0.4211 0.2105  plane waves:    1108
 k-point ** :  -0.3158 0.4737 0.2105  plane waves:    1104
 k-point ** :  -0.2632 0.4737 0.2105  plane waves:    1108

 maximum and minimum number of plane-waves per node :      1116     1067

 maximum number of plane-waves:      1116
 maximum index in each direction: 
   IXMAX=    7   IYMAX=    7   IZMAX=    7
   IXMIN=   -7   IYMIN=   -7   IZMIN=   -7

 NGX is ok and might be reduce to  30
 NGY is ok and might be reduce to  30
 NGZ is ok and might be reduce to  30

 serial   3D FFT for wavefunctions
 parallel 3D FFT for charge:
    minimum data exchange during FFTs selected (reduces bandwidth)


 total amount of memory used by VASP MPI-rank0    41541. kBytes
=======================================================================

   base      :      30000. kBytes
   nonlr-proj:       1613. kBytes
   fftplans  :        365. kBytes
   grid      :       1447. kBytes
   one-center:          6. kBytes
   wavefun   :       8110. kBytes
 
     INWAV:  cpu time    0.0040: real time    0.0004
 initial charge density was supplied:
 number of electron       8.0000000 magnetization 
 keeping initial charge density in first step


--------------------------------------------------------------------------------------------------------


 Maximum index for non-local projection operator          705
 Maximum index for augmentation-charges          721 (set IRDMAX)


--------------------------------------------------------------------------------------------------------


 First call to EWALD:  gamma=   0.514
 Maximum number of real-space cells 3x 3x 3
 Maximum number of reciprocal cells 3x 3x 3

    FEWALD:  cpu time    0.0520: real time    0.0061


----------------------------------------- Iteration    1(   1)  ---------------------------------------


    POTLOK:  cpu time    0.7600: real time    0.1058
    SETDIJ:  cpu time    0.0880: real time    0.0115
     EDDAV:  cpu time  303.2200: real time   41.6767
       DOS:  cpu time    0.1600: real time    0.0264
    --------------------------------------------
      LOOP:  cpu time  304.2280: real time   41.8205

 eigenvalue-minimisations  : 28160
 total energy-change (2. order) : 0.4685762E+01  (-0.3088340E+03)
 number of electron       8.0000000 magnetization 
 augmentation part        8.0000000 magnetization 

 Free energy of the ion-electron system (eV)
  ---------------------------------------------------
  alpha Z        PSCENC =         3.17457616
  Ewald energy   TEWEN  =      -226.94489173
  -Hartree energ DENC   =       -15.27476044
  -exchange      EXHF   =         0.00000000
  -V(xc)+E(xc)   XCENC  =       -18.54441546
  PAW double counting   =        74.06869781      -38.71274022
  entropy T*S    EENTRO =        -0.00000076
  eigenvalues    EBANDS =        20.30520292
  atomic energy  EATOM  =       206.61409393
  Solvation  Ediel_sol  =         0.00000000
  ---------------------------------------------------
  free energy    TOTEN  =         4.68576221 eV

  energy without entropy =        4.68576296  energy(sigma->0) =        4.68576258


--------------------------------------------------------------------------------------------------------




----------------------------------------- Iteration    1(   2)  ---------------------------------------


     EDDAV:  cpu time  455.2360: real time   61.1224
       DOS:  cpu time    0.0840: real time    0.0140
    --------------------------------------------
      LOOP:  cpu time  455.3200: real time   61.1363

 eigenvalue-minimisations  : 40768
 total energy-change (2. order) :-0.1541747E+02  (-0.1513335E+02)
 number of electron       8.0000000 magnetization 
 augmentation part        8.0000000 magnetization 

 Free energy of the ion-electron system (eV)
  ---------------------------------------------------
  alpha Z        PSCENC =         3.17457616
  Ewald energy   TEWEN  =      -226.94489173
  -Hartree energ DENC   =       -15.27476044
  -exchange      EXHF   =         0.00000000
  -V(xc)+E(xc)   XCENC  =       -18.54441546
  PAW double counting   =        74.06869781      -38.71274022
  entropy T*S    EENTRO =         0.00000000
  eigenvalues    EBANDS =         4.88773265
  atomic energy  EATOM  =       206.61409393
  Solvation  Ediel_sol  =         0.00000000
  ---------------------------------------------------
  free energy    TOTEN  =       -10.73170730 eV

  energy without entropy =      -10.73170730  energy(sigma->0) =      -10.73170730


--------------------------------------------------------------------------------------------------------




----------------------------------------- Iteration    1(   3)  ---------------------------------------


     EDDAV:  cpu time  326.9440: real time   45.0014
       DOS:  cpu time    0.0880: real time    0.0137
    --------------------------------------------
      LOOP:  cpu time  327.0320: real time   45.0150

 eigenvalue-minimisations  : 30112
 total energy-change (2. order) :-0.1321685E+00  (-0.1321487E+00)
 number of electron       8.0000000 magnetization 
 augmentation part        8.0000000 magnetization 

 Free energy of the ion-electron system (eV)
  ---------------------------------------------------
  alpha Z        PSCENC =         3.17457616
  Ewald energy   TEWEN  =      -226.94489173
  -Hartree energ DENC   =       -15.27476044
  -exchange      EXHF   =         0.00000000
  -V(xc)+E(xc)   XCENC  =       -18.54441546
  PAW double counting   =        74.06869781      -38.71274022
  entropy T*S    EENTRO =         0.00000000
  eigenvalues    EBANDS =         4.75556413
  atomic energy  EATOM  =       206.61409393
  Solvation  Ediel_sol  =         0.00000000
  ---------------------------------------------------
  free energy    TOTEN  =       -10.86387582 eV

  energy without entropy =      -10.86387582  energy(sigma->0) =      -10.86387582


--------------------------------------------------------------------------------------------------------




----------------------------------------- Iteration    1(   4)  ---------------------------------------


     EDDAV:  cpu time  466.3040: real time   62.5561
       DOS:  cpu time    0.0800: real time    0.0130
    --------------------------------------------
      LOOP:  cpu time  466.3840: real time   62.5691

 eigenvalue-minimisations  : 41312
 total energy-change (2. order) :-0.5566404E-04  (-0.5566380E-04)
 number of electron       8.0000000 magnetization 
 augmentation part        8.0000000 magnetization 

 Free energy of the ion-electron system (eV)
  ---------------------------------------------------
  alpha Z        PSCENC =         3.17457616
  Ewald energy   TEWEN  =      -226.94489173
  -Hartree energ DENC   =       -15.27476044
  -exchange      EXHF   =         0.00000000
  -V(xc)+E(xc)   XCENC  =       -18.54441546
  PAW double counting   =        74.06869781      -38.71274022
  entropy T*S    EENTRO =         0.00000000
  eigenvalues    EBANDS =         4.75550847
  atomic energy  EATOM  =       206.61409393
  Solvation  Ediel_sol  =         0.00000000
  ---------------------------------------------------
  free energy    TOTEN  =       -10.86393148 eV

  energy without entropy =      -10.86393148  energy(sigma->0) =      -10.86393148


--------------------------------------------------------------------------------------------------------




----------------------------------------- Iteration    1(   5)  ---------------------------------------


     EDDAV:  cpu time  270.7360: real time   37.2693
       DOS:  cpu time    0.0800: real time    0.0126
    --------------------------------------------
      LOOP:  cpu time  270.8160: real time   37.2819

 eigenvalue-minimisations  : 23360
 total energy-change (2. order) :-0.4833890E-07  (-0.4832897E-07)
 number of electron       8.0000000 magnetization 
 augmentation part        8.0000000 magnetization 

 Free energy of the ion-electron system (eV)
  ---------------------------------------------------
  alpha Z        PSCENC =         3.17457616
  Ewald energy   TEWEN  =      -226.94489173
  -Hartree energ DENC   =       -15.27476044
  -exchange      EXHF   =         0.00000000
  -V(xc)+E(xc)   XCENC  =       -18.54441546
  PAW double counting   =        74.06869781      -38.71274022
  entropy T*S    EENTRO =         0.00000000
  eigenvalues    EBANDS =         4.75550842
  atomic energy  EATOM  =       206.61409393
  Solvation  Ediel_sol  =         0.00000000
  ---------------------------------------------------
  free energy    TOTEN  =       -10.86393153 eV

  energy without entropy =      -10.86393153  energy(sigma->0) =      -10.86393153


--------------------------------------------------------------------------------------------------------




----------------------------------------- Iteration    1(   6)  ---------------------------------------


     EDDAV:  cpu time  414.9280: real time   55.7519
       DOS:  cpu time    0.0960: real time    0.0155
    --------------------------------------------
      LOOP:  cpu time  415.0240: real time   55.7674

 eigenvalue-minimisations  : 34240
 total energy-change (2. order) :-0.1341959E-08  (-0.1347004E-08)
 number of electron       8.0000000 magnetization 
 augmentation part        8.0000000 magnetization 

 Free energy of the ion-electron system (eV)
  ---------------------------------------------------
  alpha Z        PSCENC =         3.17457616
  Ewald energy   TEWEN  =      -226.94489173
  -Hartree energ DENC   =       -15.27476044
  -exchange      EXHF   =         0.00000000
  -V(xc)+E(xc)   XCENC  =       -18.54441546
  PAW double counting   =        74.06869781      -38.71274022
  entropy T*S    EENTRO =         0.00000000
  eigenvalues    EBANDS =         4.75550842
  atomic energy  EATOM  =       206.61409393
  Solvation  Ediel_sol  =         0.00000000
  ---------------------------------------------------
  free energy    TOTEN  =       -10.86393153 eV

  energy without entropy =      -10.86393153  energy(sigma->0) =      -10.86393153


--------------------------------------------------------------------------------------------------------




 average (electrostatic) potential at core
  the test charge radii are     0.9892
  (the norm of the test charge is              1.0000)
       1 -83.7284       2 -83.7284
 
 
 
 E-fermi :   5.6717     XC(G=0):  -9.3514     alpha+bet :-11.7461


 k-point     1 :       0.0000    0.0000    0.0000
  band No.  band energies     occupation 
      1      -6.2129      2.00000
      2       5.5838      2.00000
      3       5.5838      2.00000
      4       5.5838      2.00000
      5       8.1597      0.00000
      6       8.1597      0.00000
      7       8.1597      0.00000
      8       8.7106      0.00000
      9      13.3234      0.00000
     10      13.3234      0.00000
     11      13.4476      0.00000
     12      16.7786      0.00000
     13      16.7786      0.00000
     14      16.7786      0.00000
     15      20.8511      0.00000
     16      28.4173      0.00000
     17      28.4173      0.00000
     18      28.4173      0.00000
     19      29.5151      0.00000
     20      29.5151      0.00000
     21      30.9119      0.00000
     22      30.9119      0.00000
     23      30.9119      0.00000
     24      34.5405      0.00000
     25      34.5405      0.00000
     26      34.5405      0.00000
     27      40.0336      0.00000
     28      40.0336      0.00000
     29      40.0336      0.00000
     30      43.3964      0.00000
     31      43.8116      0.00000
     32      43.8116      0.00000
     33      45.7530      0.00000
     34      45.7530      0.00000
     35      47.2115      0.00000
     36      47.2115      0.00000
     37      47.2115      0.00000
     38      49.0124      0.00000
     39      49.0124      0.00000
     40      49.0124      0.00000
     41      49.4472      0.00000
     42      50.0788      0.00000
     43      50.0788      0.00000
     44      50.0788      0.00000
     45      50.1075      0.00000
     46      50.1075      0.00000
     47      50.1075      0.00000
     48      51.5063      0.00000
     49      51.5063      0.00000
     50      51.5063      0.00000
     51      55.3732      0.00000
     52      56.4962      0.00000
     53      56.4962      0.00000
     54      56.4962      0.00000
     55      56.7838      0.00000
     56      56.7838      0.00000
     57      56.7838      0.00000
     58      61.5939      0.00000
     59      62.4666      0.00000
     60      71.2108      0.00000
     61      71.2108      0.00000
     62      74.2468      0.00000
     63      74.2469      0.00000
     64      74.2469      0.00000

 k-point     2 :       0.0526    0.0000    0.0000
  band No.  band energies     occupation 
      1      -6.1772      2.00000
      2       5.1926      2.00000
      3       5.5249      2.00000
      4       5.5249      2.00000
      5       8.2008      0.00000
      6       8.2464      0.00000
      7       8.2464      0.00000
      8       8.9986      0.00000
      9      13.2037      0.00000
     10      13.2037      0.00000
     11      13.6049      0.00000
     12      16.6355      0.00000
     13      17.0142      0.00000
     14      17.0142      0.00000
     15      21.1026      0.00000
     16      27.9769      0.00000
     17      28.0347      0.00000
     18      28.0347      0.00000
     19      29.2751      0.00000
     20      29.2751      0.00000
     21      31.1323      0.00000
     22      31.1323      0.00000
     23      31.2994      0.00000
     24      34.5731      0.00000
     25      35.0128      0.00000
     26      35.0129      0.00000
     27      39.5056      0.00000
     28      39.9350      0.00000
     29      39.9350      0.00000
     30      43.4541      0.00000
     31      43.4541      0.00000
     32      43.5584      0.00000
     33      45.2453      0.00000
     34      45.2453      0.00000
     35      47.2124      0.00000
     36      47.2124      0.00000
     37      47.3096      0.00000
     38      48.5558      0.00000
     39      48.8319      0.00000
     40      48.8319      0.00000
     41      49.1625      0.00000
     42      49.6990      0.00000
     43      49.6990      0.00000
     44      49.7977      0.00000
     45      50.3255      0.00000
     46      50.7097      0.00000
     47      50.7097      0.00000
     48      52.5422      0.00000
     49      52.6717      0.00000
     50      52.6717      0.00000
     51      54.0975      0.00000
     52      55.8271      0.00000
     53      55.8271      0.00000
     54      55.9337      0.00000
     55      57.6564      0.00000
     56      57.6564      0.00000
     57      58.4919      0.00000
     58      62.0176      0.00000
     59      62.7227      0.00000
     60      70.3748      0.00000
     61      70.3748      0.00000
     62      73.2603      0.00000
     63      74.7585      0.00000
     64      74.7587      0.00000

 k-point     3 :       0.1053    0.0000    0.0000
  band No.  band energies     occupation 
      1      -6.0706      2.00000
      2       4.3537      2.00000
      3       5.3739      2.00000
      4       5.3739      2.00000
      5       8.1023      0.00000
      6       8.4701      0.00000
      7       8.4701      0.00000
      8       9.7698      0.00000
      9      12.9448      0.00000
     10      12.9448      0.00000
     11      14.0292      0.00000
     12      16.3264      0.00000
     13      17.6290      0.00000
     14      17.6290      0.00000
     15      21.7562      0.00000
     16      26.9260      0.00000
     17      26.9260      0.00000
     18      27.0625      0.00000
     19      29.1646      0.00000
     20      29.1646      0.00000
     21      31.3883      0.00000
     22      31.3883      0.00000
     23      32.0609      0.00000
     24      34.6702      0.00000
     25      36.1596      0.00000
     26      36.1596      0.00000
     27      38.2524      0.00000
     28      39.6578      0.00000
     29      39.6578      0.00000
     30      42.4591      0.00000
     31      42.4591      0.00000
     32      43.8510      0.00000
     33      44.1818      0.00000
     34      44.1818      0.00000
     35      47.0368      0.00000
     36      47.0368      0.00000
     37      47.1737      0.00000
     38      47.8367      0.00000
     39      48.2992      0.00000
     40      48.9785      0.00000
     41      48.9785      0.00000
     42      49.6164      0.00000
     43      49.6400      0.00000
     44      49.6400      0.00000
     45      51.3787      0.00000
     46      51.8284      0.00000
     47      51.8284      0.00000
     48      52.1844      0.00000
     49      54.1415      0.00000
     50      54.4035      0.00000
     51      54.4035      0.00000
     52      55.6170      0.00000
     53      55.6170      0.00000
     54      56.1350      0.00000
     55      58.8084      0.00000
     56      58.8084      0.00000
     57      59.8266      0.00000
     58      62.9340      0.00000
     59      63.9157      0.00000
     60      68.8613      0.00000
     61      68.8613      0.00000
     62      71.5213      0.00000
     63      73.5126      0.00000
     64      73.5129      0.00000

 k-point     4 :       0.1579    0.0000    0.0000
  band No.  band energies     occupation 
      1      -5.8945      2.00000
      2       3.3911      2.00000
      3       5.1799      2.00000
      4       5.1799      2.00000
      5       7.9129      0.00000
      6       8.7476      0.00000
      7       8.7476      0.00000
      8      10.6959      0.00000
      9      12.7196      0.00000
     10      12.7196      0.00000
     11      14.5198      0.00000
     12      16.1526      0.00000
     13      18.4730      0.00000
     14      18.4730      0.00000
     15      22.6257      0.00000
     16      25.5532      0.00000
     17      25.5532      0.00000
     18      26.0530      0.00000
     19      29.2003      0.00000
     20      29.2003      0.00000
     21      31.5672      0.00000
     22      31.5672      0.00000
     23      32.8424      0.00000
     24      34.8287      0.00000
     25      36.6947      0.00000
     26      37.4739      0.00000
     27      37.4739      0.00000
     28      39.2530      0.00000
     29      39.2530      0.00000
     30      41.0121      0.00000
     31      41.0121      0.00000
     32      43.3103      0.00000
     33      43.3104      0.00000
     34      44.0617      0.00000
     35      46.3055      0.00000
     36      46.5624      0.00000
     37      46.7628      0.00000
     38      46.7628      0.00000
     39      48.5099      0.00000
     40      49.0451      0.00000
     41      49.0451      0.00000
     42      49.3364      0.00000
     43      50.3050      0.00000
     44      50.3050      0.00000
     45      50.4209      0.00000
     46      53.0376      0.00000
     47      53.1641      0.00000
     48      53.1641      0.00000
     49      54.5301      0.00000
     50      54.5301      0.00000
     51      55.8748      0.00000
     52      56.4910      0.00000
     53      57.5542      0.00000
     54      57.5542      0.00000
     55      60.0901      0.00000
     56      60.0901      0.00000
     57      60.7873      0.00000
     58      63.7720      0.00000
     59      66.1504      0.00000
     60      67.2723      0.00000
     61      67.2723      0.00000
     62      69.7296      0.00000
     63      71.3449      0.00000
     64      71.3449      0.00000

 k-point     5 :       0.2105    0.0000    0.0000
  band No.  band energies     occupation 
      1      -5.6517      2.00000
      2       2.4172      2.00000
      3       4.9813      2.00000
      4       4.9813      2.00000
      5       7.7020      0.00000
      6       8.9845      0.00000
      7       8.9845      0.00000
      8      11.6397      0.00000
      9      12.6665      0.00000
     10      12.6665      0.00000
     11      14.6417      0.00000
     12      16.5869      0.00000
     13      19.4280      0.00000
     14      19.4280      0.00000
     15      23.3946      0.00000
     16      24.1772      0.00000
     17      24.1772      0.00000
     18      25.2833      0.00000
     19      29.2802      0.00000
     20      29.2802      0.00000
     21      31.7164      0.00000
     22      31.7164      0.00000
     23      33.4148      0.00000
     24      35.0428      0.00000
     25      35.1513      0.00000
     26      37.9456      0.00000
     27      37.9456      0.00000
     28      38.9709      0.00000
     29      38.9709      0.00000
     30      39.7729      0.00000
     31      39.7729      0.00000
     32      42.9947      0.00000
     33      42.9947      0.00000
     34      44.0399      0.00000
     35      44.8963      0.00000
     36      45.3812      0.00000
     37      46.5193      0.00000
     38      46.5193      0.00000
     39      48.7667      0.00000
     40      49.0137      0.00000
     41      49.0137      0.00000
     42      49.1224      0.00000
     43      49.5763      0.00000
     44      51.2801      0.00000
     45      51.2801      0.00000
     46      54.4371      0.00000
     47      54.4371      0.00000
     48      54.6523      0.00000
     49      54.7011      0.00000
     50      54.7011      0.00000
     51      57.0047      0.00000
     52      57.7058      0.00000
     53      60.1003      0.00000
     54      60.1003      0.00000
     55      61.4691      0.00000
     56      61.4691      0.00000
     57      61.7349      0.00000
     58      64.6932      0.00000
     59      65.7475      0.00000
     60      65.7475      0.00000
     61      67.4694      0.00000
     62      69.0846      0.00000
     63      69.0846      0.00000
     64      69.2225      0.00000

 k-point     6 :       0.2632    0.0000    0.0000
  band No.  band energies     occupation 
      1      -5.3473      2.00000
      2       1.4773      2.00000
      3       4.8006      2.00000
      4       4.8006      2.00000
      5       7.5023      0.00000
      6       9.1104      0.00000
      7       9.1104      0.00000
      8      12.5405      0.00000
      9      12.8724      0.00000
     10      12.8724      0.00000
     11      14.4665      0.00000
     12      17.5599      0.00000
     13      20.2946      0.00000
     14      20.2946      0.00000
     15      23.0262      0.00000
     16      23.0262      0.00000
     17      23.1687      0.00000
     18      25.6624      0.00000
     19      29.3579      0.00000
     20      29.3579      0.00000
     21      31.8514      0.00000
     22      31.8514      0.00000
     23      32.7437      0.00000
     24      34.6895      0.00000
     25      35.3024      0.00000
     26      36.7108      0.00000
     27      36.7108      0.00000
     28      38.5652      0.00000
     29      38.5652      0.00000
     30      39.5792      0.00000
     31      39.5792      0.00000
     32      43.0990      0.00000
     33      43.6385      0.00000
     34      43.6385      0.00000
     35      43.8351      0.00000
     36      44.3115      0.00000
     37      46.3414      0.00000
     38      46.3414      0.00000
     39      48.4937      0.00000
     40      48.9473      0.00000
     41      48.9473      0.00000
     42      49.2226      0.00000
     43      49.7224      0.00000
     44      52.2940      0.00000
     45      52.2940      0.00000
     46      54.7180      0.00000
     47      54.7180      0.00000
     48      56.1070      0.00000
     49      56.2783      0.00000
     50      56.2783      0.00000
     51      57.7924      0.00000
     52      59.6256      0.00000
     53      62.5018      0.00000
     54      62.5018      0.00000
     55      62.7329      0.00000
     56      62.9374      0.00000
     57      62.9374      0.00000
     58      64.5230      0.00000
     59      64.5231      0.00000
     60      65.5995      0.00000
     61      66.0330      0.00000
     62      66.9220      0.00000
     63      66.9220      0.00000
     64      70.7692      0.00000

 k-point     7 :       0.3158    0.0000    0.0000
  band No.  band energies     occupation 
      1      -4.9913      2.00000
      2       0.6000      2.00000
      3       4.6493      2.00000
      4       4.6493      2.00000
      5       7.3313      0.00000
      6       9.1204      0.00000
      7       9.1204      0.00000
      8      13.2427      0.00000
      9      13.3477      0.00000
     10      13.3477      0.00000
     11      14.4421      0.00000
     12      18.6694      0.00000
     13      20.3235      0.00000
     14      20.3235      0.00000
     15      22.3740      0.00000
     16      22.8543      0.00000
     17      22.8543      0.00000
     18      26.8410      0.00000
     19      29.3750      0.00000
     20      29.3750      0.00000
     21      31.0886      0.00000
     22      31.9628      0.00000
     23      31.9628      0.00000
     24      35.0161      0.00000
     25      35.1390      0.00000
     26      35.1390      0.00000
     27      35.5903      0.00000
     28      38.1307      0.00000
     29      38.1307      0.00000
     30      39.2551      0.00000
     31      39.2551      0.00000
     32      41.4182      0.00000
     33      43.3275      0.00000
     34      43.3735      0.00000
     35      45.0033      0.00000
     36      45.0033      0.00000
     37      46.2627      0.00000
     38      46.2627      0.00000
     39      48.2374      0.00000
     40      48.9046      0.00000
     41      48.9046      0.00000
     42      49.0876      0.00000
     43      50.6326      0.00000
     44      53.1808      0.00000
     45      53.1809      0.00000
     46      55.3201      0.00000
     47      55.3201      0.00000
     48      57.1429      0.00000
     49      57.9516      0.00000
     50      57.9517      0.00000
     51      58.7990      0.00000
     52      61.6299      0.00000
     53      62.3724      0.00000
     54      62.3724      0.00000
     55      63.5965      0.00000
     56      63.9448      0.00000
     57      63.9448      0.00000
     58      64.9233      0.00000
     59      65.3312      0.00000
     60      65.3312      0.00000
     61      66.0489      0.00000
     62      66.0489      0.00000
     63      66.2025      0.00000
     64      69.2862      0.00000

 k-point     8 :       0.3684    0.0000    0.0000
  band No.  band energies     occupation 
      1      -4.6040      2.00000
      2      -0.1846      2.00000
      3       4.5334      2.00000
      4       4.5334      2.00000
      5       7.1981      0.00000
      6       9.0653      0.00000
      7       9.0653      0.00000
      8      13.4263      0.00000
      9      14.0419      0.00000
     10      14.0419      0.00000
     11      14.9821      0.00000
     12      19.3567      0.00000
     13      19.3567      0.00000
     14      19.4054      0.00000
     15      22.0011      0.00000
     16      23.8162      0.00000
     17      23.8162      0.00000
     18      28.1841      0.00000
     19      29.2181      0.00000
     20      29.2181      0.00000
     21      29.3601      0.00000
     22      32.0156      0.00000
     23      32.0156      0.00000
     24      33.7593      0.00000
     25      33.7593      0.00000
     26      35.0971      0.00000
     27      35.8784      0.00000
     28      37.8170      0.00000
     29      37.8170      0.00000
     30      38.8015      0.00000
[...]
   28          m_sum_g                               0.611140                        220   4
   29          distri_slice                          0.001754                        220   4
   30        choleski                              0.494229                          220   3
   31          bg_ppotrf_trtri                       0.491983                        220   4
   32        lincom_distri                         0.474173                          220   3
   33          recon_slice                           0.002557                        220   4
   34          m_sum_g                               0.123103                        220   4
   35          lincom_slice                          0.342759                        220   4
   36      redis_pw_over_bands                   0.000003                              1   2
   37      set_dd_paw                            0.016731                              2   2
   38        set_rsgf_all                          0.000014                            2   3
   39      eddav                               302.850653                              6   2
   40        phaser                                1.043197                         1320   3
   41        redis_proj                            7.384886                        32664   3
   42        redis_pw                             29.185456                        26478   3
   43        w1_copy                               1.250425                        26478   3
   44        fftwav_mpi                           14.033869                        15012   3
   45          fftwav                               13.889272                      15012   4
   46            fft3d                                12.604269                    15012   5
   47        eccp                                  0.279150                         2640   3
   48        truncate_high_frequency_w1            0.028150                        11466   3
   49        setup_precond                         0.093648                         2640   3
   50        hamiltmu                             12.292494                         8826   3
   51          vhamil                                1.047060                       8826   4
   52          raccmu_                               2.477892                       8826   4
   53            overl1                                0.227916                     8826   5
   54            racc0                                 2.067127                     8826   5
   55              crrexp_mul_work_add                   0.538381                  17652   6
   56          kinhamil                              8.012200                       8826   4
   57            fftext_mpi                            7.811664                     8826   5
   58              fft3d_mpi                             7.491771                   8826   6
   59                fft3d                                 7.374011                 8826   7
   60        overl                                 0.390292                        15012   3
   61        orth1                                 3.111094                        23838   3
   62        apply_precond                         0.178892                         6186   3
   63        w1_projall                            1.859259                         6186   3
   64          rpro1                                 1.796996                       6186   4
   65            crrexp_mul_wave                       0.592598                    49488   5
   66        orth1_nosubindex                      0.241318                         2640   3
   67        distri_slice                          0.016984                         2640   3
   68        bg_change_diagonale                   0.345040                        84480   3
   69        bg_pdssyex_zheevx                    44.477280                         1320   3
   70        lincom_distri                        13.504611                         1320   3
   71          recon_slice                           0.023484                       1320   4
   72          m_sum_g                              11.713622                       1320   4
   73          lincom_slice                          1.722033                       1320   4
   74      force_and_stress                      8.731686                              1   2
   75        set_charge                            0.214218                            1   3
   76          soft_charge                           0.208425                          1   4
   77            fftwav_mpi                            0.183127                      220   5
   78              fftwav                                0.181300                    220   6
   79                fft3d                                 0.167362                  220   7
   80            pw_charge                             0.011337                      220   5
   81            fft3d_mpi                             0.002993                        1   5
   82              fftbas_plan_mpi                       0.002267                      1   6
   83                dfftw_execute                         0.000363                    3   7
   84                map_backward                          0.001703                    2   7
   85                  map_gather                            0.000153                  2   8
   86                  m_alltoallv_z                         0.001461                  2   8
   87                  map_scatter                           0.000036                  2   8
   88          depsum                                0.002895                          1   4
   89          fft3d_mpi                             0.000823                          1   4
   90            fftbas_plan_mpi                       0.000761                        1   5
   91              dfftw_execute                         0.000134                      3   6
   92              map_backward                          0.000396                      2   6
   93                map_gather                            0.000021                    1   7
   94                m_alltoallv_z                         0.000323                    1   7
   95                map_scatter                           0.000027                    1   7
   96        forloc                                0.003321                            1   3
   97        fornlr                                2.102840                            1   3
   98          rspher_all                            0.006736                          3   4
   99          phaser                                0.505528                        660   4
  100          rpro_isp                              1.551872                        660   4
  101            fftwav_mpi                            1.200086                     1320   5
  102              fftwav                                1.187951                   1320   6
  103                fft3d                                 1.074515                 1320   7
  104            rpromu                                0.311217                      660   5
  105              crrexp_mul_wave                       0.125427                  10560   6
  106        fordep                                0.005629                            1   3
  107          setdij_                               0.005511                          6   4
  108        setdij_                               0.017534                           20   3
  109        set_dd_paw                            0.006492                            1   3
  110          set_rsgf_all                          0.000003                          1   4
  111        strkin                                0.006714                            1   3
  112        strelo                                0.000898                            1   3
  113        strnlr                                6.336463                            1   3
  114          rspher_all                            0.019331                          9   4
  115          phaser                                1.519784                       1980   4
  116          rpro_isp                              4.678928                       1980   4
  117            fftwav_mpi                            3.614738                     3960   5
  118              fftwav                                3.577552                   3960   6
  119                fft3d                                 3.232428                 3960   7
  120            rpromu                                0.941507                     1980   5
  121              crrexp_mul_wave                       0.378195                  31680   6
  122        fft3d_mpi                             0.007981                           11   3
  123          fftbas_plan_mpi                       0.007308                         11   4
  124            dfftw_execute                         0.001457                       33   5
  125            map_forward                           0.001455                       10   5
  126              map_gather                            0.000088                      5   6
  127              m_alltoallv_z                         0.001056                      5   6
  128              map_scatter                           0.000182                      5   6
  129            map_backward                          0.001902                       12   5
  130              map_gather                            0.000104                      6   6
  131              m_alltoallv_z                         0.001504                      6   6
  132              map_scatter                           0.000139                      6   6
  133        forhar                                0.003635                            2   3
  134        strehar                               0.000910                            1   3
  135        chggra                                0.003063                            1   3
  136          fft3d_mpi                             0.002304                          3   4
  137            fftbas_plan_mpi                       0.002123                        3   5
  138              dfftw_execute                         0.000432                      9   6
  139              map_forward                           0.000598                      4   6
  140                map_gather                            0.000039                    2   7
  141                m_alltoallv_z                         0.000454                    2   7
  142                map_scatter                           0.000053                    2   7
  143              map_backward                          0.000370                      2   6
  144                map_gather                            0.000017                    1   7
  145                m_alltoallv_z                         0.000302                    1   7
  146                map_scatter                           0.000025                    1   7
 
 Flat profile
 ============
 
             routine name                   CPU           calls
 ---------------------------------------------------------------
 eddav                                 173.134609           6
 bg_pdssyex_zheevx                      44.477280        1320
 redis_pw                               29.403514       26918
 fft3d                                  24.790128       29778
 m_sum_g                                12.447865        1760
 total_time                             11.524052           1
 redis_proj                              7.691900       33324
 phaser                                  3.240363        4180
 orth1                                   3.111094       23838
 lincom_slice                            2.064792        1540
 fftwav                                  1.796194       20952
 racc0                                   1.528745        8826
 w1_copy                                 1.250425       26478
 rpro1                                   1.204397        6186
 crrexp_mul_wave                         1.138213       95248
 vhamil                                  1.047060        8826
 rpromu                                  0.811491        2860
 hamiltmu                                0.755343        8826
 crrexp_mul_work_add                     0.538381       17652
 bg_ppotrf_trtri                         0.491983         220
 overl                                   0.398159       15232
 bg_change_diagonale                     0.345040       84480
 fftext_mpi                              0.319893        8826
 orth1_nosubindex                        0.304569        2860
 eccp                                    0.279150        2640
 overl1                                  0.227916        8826
 kinhamil                                0.200536        8826
 fftwav_mpi                              0.199762       20952
 raccmu_                                 0.182850        8826
 apply_precond                           0.178892        6186
 rpro_isp                                0.176469        2860
 fft3d_mpi                               0.123423        8875
 strnlr                                  0.118420           1
 setup_precond                           0.093648        2640
 dfftw_execute                           0.079088         147
 w1_projall                              0.062264        6186
 lincom_distri                           0.051226        1540
 fornlr                                  0.038704           1
 rspher_all                              0.033124          14
 setdij_                                 0.028236          29
 truncate_high_frequency_w1              0.028150       11466
 recon_slice                             0.026041        1540
 orthch                                  0.023708           1
 set_dd_paw                              0.023206           3
 force_and_stress                        0.021989           1
 m_alltoallv_z                           0.019589          53
 distri_slice                            0.018737        2860
 fftbas_plan_mpi                         0.011965          49
 pw_charge                               0.011337         220
 soft_charge                             0.010968           1
 orth1_distri                            0.007875         220
 strkin                                  0.006714           1
 forhar                                  0.003635           2
 forloc                                  0.003321           1
 depsum                                  0.002895           1
 choleski                                0.002246         220
 set_charge                              0.002075           1
 map_scatter                             0.001672          53
 map_gather                              0.001153          53
 strehar                                 0.000910           1
 strelo                                  0.000898           1
 map_backward                            0.000890          48
 map_forward                             0.000884          50
 chggra                                  0.000759           1
 fordep                                  0.000118           1
 set_rsgf_all                            0.000017           3
 redis_pw_over_bands                     0.000003           1
 ---------------------------------------------------------------
  summed up times    326.120949983597     
 
 Accumulative profile
 ====================
 
             routine name                   CPU           calls
 ---------------------------------------------------------------
 total_time                            326.120950           1
 eddav                                 302.850653           6
 bg_pdssyex_zheevx                      44.477280        1320
 redis_pw                               29.403514       26918
 fft3d                                  24.790128       29778
 fftwav_mpi                             19.412072       20952
 fftwav                                 19.212311       20952
 lincom_distri                          13.978784        1540
 m_sum_g                                12.447865        1760
 hamiltmu                               12.292494        8826
 force_and_stress                        8.731686           1
 kinhamil                                8.012200        8826
 fftext_mpi                              7.811664        8826
 redis_proj                              7.691900       33324
 fft3d_mpi                               7.612674        8875
 rpro_isp                                6.728651        2860
 strnlr                                  6.336463           1
 phaser                                  3.240363        4180
 orth1                                   3.111094       23838
 raccmu_                                 2.477892        8826
 orthch                                  2.209068           1
 fornlr                                  2.102840           1
 racc0                                   2.067127        8826
 lincom_slice                            2.064792        1540
 w1_projall                              1.859259        6186
 rpro1                                   1.796996        6186
 rpromu                                  1.357106        2860
 w1_copy                                 1.250425       26478
 crrexp_mul_wave                         1.138213       95248
 vhamil                                  1.047060        8826
 orth1_distri                            0.684019         220
 crrexp_mul_work_add                     0.538381       17652
 choleski                                0.494229         220
 bg_ppotrf_trtri                         0.491983         220
 overl                                   0.398159       15232
 bg_change_diagonale                     0.345040       84480
 orth1_nosubindex                        0.304569        2860
 eccp                                    0.279150        2640
 overl1                                  0.227916        8826
 set_charge                              0.214218           1
 soft_charge                             0.208425           1
 apply_precond                           0.178892        6186
 fftbas_plan_mpi                         0.115241          49
 setup_precond                           0.093648        2640
 dfftw_execute                           0.079088         147
 rspher_all                              0.033124          14
 setdij_                                 0.028236          29
 truncate_high_frequency_w1              0.028150       11466
 recon_slice                             0.026041        1540
 set_dd_paw                              0.023223           3
 m_alltoallv_z                           0.019589          53
 distri_slice                            0.018737        2860
 map_backward                            0.013041          48
 pw_charge                               0.011337         220
 map_forward                             0.011146          50
 strkin                                  0.006714           1
 fordep                                  0.005629           1
 forhar                                  0.003635           2
 forloc                                  0.003321           1
 chggra                                  0.003063           1
 depsum                                  0.002895           1
 map_scatter                             0.001672          53
 map_gather                              0.001153          53
 strehar                                 0.000910           1
 strelo                                  0.000898           1
 set_rsgf_all                            0.000017           3
 redis_pw_over_bands                     0.000003           1
 ---------------------------------------------------------------
 
Profiling took   1.676990  0.966168  0.004817  0.004341 seconds
Profiling took   1.278102 seconds
